M 0.00000 0 (0.00, 0.00, 0.00), (200.00, 400.00), 3000.00
M 0.00000 1 (0.00, 0.00, 0.00), (400.00, 245.00), 3000.00
M 0.00000 2 (0.00, 0.00, 0.00), (400.00, 150.00), 3000.00
M 0.00000 3 (0.00, 0.00, 0.00), (400.00, 200.00), 3000.00
M 0.00000 4 (0.00, 0.00, 0.00), (400.00, 250.00), 3000.00
M 0.00000 5 (0.00, 0.00, 0.00), (600.00, 400.00), 3000.00
s 0.300000000 _0_ AGT  --- 0 cbr 3000 [0 0 0 0] ------- [0:2 5:0 32 0] [0] 0 0
r 0.300000000 _0_ RTR  --- 0 cbr 3000 [0 0 0 0] ------- [0:2 5:0 32 0] [0] 0 0
s 0.300000000 _0_ RTR  --- 0 AODV 48 [0 0 0 0] ------- [0:255 -1:255 30 0] [0x2 1 1 [5 0] [0 4]] (REQUEST)
s 0.300235000 _0_ MAC  --- 0 AODV 106 [0 ffffffff 0 800] ------- [0:255 -1:255 30 0] [0x2 1 1 [5 0] [0 4]] (REQUEST)
r 0.301083833 _4_ MAC  --- 0 AODV 48 [0 ffffffff 0 800] ------- [0:255 -1:255 30 0] [0x2 1 1 [5 0] [0 4]] (REQUEST)
r 0.301108833 _4_ RTR  --- 0 AODV 48 [0 ffffffff 0 800] ------- [0:255 -1:255 30 0] [0x2 1 1 [5 0] [0 4]] (REQUEST)
s 0.303454851 _4_ RTR  --- 0 AODV 48 [0 ffffffff 0 800] ------- [4:255 -1:255 29 0] [0x2 2 1 [5 0] [0 4]] (REQUEST)
s 0.303889851 _4_ MAC  --- 0 AODV 106 [0 ffffffff 4 800] ------- [4:255 -1:255 29 0] [0x2 2 1 [5 0] [0 4]] (REQUEST)
r 0.304737868 _1_ MAC  --- 0 AODV 48 [0 ffffffff 4 800] ------- [4:255 -1:255 29 0] [0x2 2 1 [5 0] [0 4]] (REQUEST)
r 0.304738018 _3_ MAC  --- 0 AODV 48 [0 ffffffff 4 800] ------- [4:255 -1:255 29 0] [0x2 2 1 [5 0] [0 4]] (REQUEST)
r 0.304738184 _2_ MAC  --- 0 AODV 48 [0 ffffffff 4 800] ------- [4:255 -1:255 29 0] [0x2 2 1 [5 0] [0 4]] (REQUEST)
r 0.304738684 _0_ MAC  --- 0 AODV 48 [0 ffffffff 4 800] ------- [4:255 -1:255 29 0] [0x2 2 1 [5 0] [0 4]] (REQUEST)
r 0.304738684 _5_ MAC  --- 0 AODV 48 [0 ffffffff 4 800] ------- [4:255 -1:255 29 0] [0x2 2 1 [5 0] [0 4]] (REQUEST)
r 0.304762868 _1_ RTR  --- 0 AODV 48 [0 ffffffff 4 800] ------- [4:255 -1:255 29 0] [0x2 2 1 [5 0] [0 4]] (REQUEST)
r 0.304763018 _3_ RTR  --- 0 AODV 48 [0 ffffffff 4 800] ------- [4:255 -1:255 29 0] [0x2 2 1 [5 0] [0 4]] (REQUEST)
r 0.304763184 _2_ RTR  --- 0 AODV 48 [0 ffffffff 4 800] ------- [4:255 -1:255 29 0] [0x2 2 1 [5 0] [0 4]] (REQUEST)
r 0.304763684 _0_ RTR  --- 0 AODV 48 [0 ffffffff 4 800] ------- [4:255 -1:255 29 0] [0x2 2 1 [5 0] [0 4]] (REQUEST)
r 0.304763684 _5_ RTR  --- 0 AODV 48 [0 ffffffff 4 800] ------- [4:255 -1:255 29 0] [0x2 2 1 [5 0] [0 4]] (REQUEST)
s 0.304763684 _5_ RTR  --- 0 AODV 44 [0 0 0 0] ------- [5:255 0:255 30 4] [0x4 1 [5 4] 10.000000] (REPLY)
s 0.304978684 _5_ MAC  --- 0 ARP 86 [0 ffffffff 5 806] ------- [REQUEST 5/5 0/4]
s 0.305191130 _2_ RTR  --- 0 AODV 48 [0 ffffffff 4 800] ------- [2:255 -1:255 28 0] [0x2 3 1 [5 0] [0 4]] (REQUEST)
r 0.305667518 _4_ MAC  --- 0 ARP 28 [0 ffffffff 5 806] ------- [REQUEST 5/5 0/4]
s 0.305797518 _4_ MAC  --- 0 RTS 44 [52e 5 4 0] 
r 0.306150351 _5_ MAC  --- 0 RTS 44 [52e 5 4 0] 
s 0.306160351 _5_ MAC  --- 0 CTS 38 [3f4 4 0 0] 
s 0.306404472 _3_ RTR  --- 0 AODV 48 [0 ffffffff 4 800] ------- [3:255 -1:255 28 0] [0x2 3 1 [5 0] [0 4]] (REQUEST)
r 0.306465184 _4_ MAC  --- 0 CTS 38 [3f4 4 0 0] 
s 0.306475184 _4_ MAC  --- 0 ARP 86 [13a 5 4 806] ------- [REPLY 4/4 5/5]
r 0.307164018 _5_ MAC  --- 0 ARP 28 [13a 5 4 806] ------- [REPLY 4/4 5/5]
s 0.307174018 _5_ MAC  --- 0 ACK 38 [0 4 0 0] 
r 0.307478851 _4_ MAC  --- 0 ACK 38 [0 4 0 0] 
s 0.307688018 _5_ MAC  --- 0 RTS 44 [5ae 4 5 0] 
r 0.308040851 _4_ MAC  --- 0 RTS 44 [5ae 4 5 0] 
s 0.308050851 _4_ MAC  --- 0 CTS 38 [474 5 0 0] 
r 0.308355684 _5_ MAC  --- 0 CTS 38 [474 5 0 0] 
s 0.308365684 _5_ MAC  --- 0 AODV 102 [13a 4 5 800] ------- [5:255 0:255 30 4] [0x4 1 [5 4] 10.000000] (REPLY)
r 0.309182518 _4_ MAC  --- 0 AODV 44 [13a 4 5 800] ------- [5:255 0:255 30 4] [0x4 1 [5 4] 10.000000] (REPLY)
s 0.309192518 _4_ MAC  --- 0 ACK 38 [0 5 0 0] 
r 0.309207518 _4_ RTR  --- 0 AODV 44 [13a 4 5 800] ------- [5:255 0:255 30 4] [0x4 1 [5 4] 10.000000] (REPLY)
f 0.309207518 _4_ RTR  --- 0 AODV 44 [13a 4 5 800] ------- [5:255 0:255 29 0] [0x4 2 [5 4] 10.000000] (REPLY)
r 0.309497351 _5_ MAC  --- 0 ACK 38 [0 5 0 0] 
s 0.309756627 _3_ MAC  --- 0 AODV 106 [0 ffffffff 3 800] ------- [3:255 -1:255 28 0] [0x2 3 1 [5 0] [0 4]] (REQUEST)
r 0.310604777 _1_ MAC  --- 0 AODV 48 [0 ffffffff 3 800] ------- [3:255 -1:255 28 0] [0x2 3 1 [5 0] [0 4]] (REQUEST)
r 0.310604794 _4_ MAC  --- 0 AODV 48 [0 ffffffff 3 800] ------- [3:255 -1:255 28 0] [0x2 3 1 [5 0] [0 4]] (REQUEST)
r 0.310604794 _2_ MAC  --- 0 AODV 48 [0 ffffffff 3 800] ------- [3:255 -1:255 28 0] [0x2 3 1 [5 0] [0 4]] (REQUEST)
r 0.310629777 _1_ RTR  --- 0 AODV 48 [0 ffffffff 3 800] ------- [3:255 -1:255 28 0] [0x2 3 1 [5 0] [0 4]] (REQUEST)
r 0.310629794 _4_ RTR  --- 0 AODV 48 [0 ffffffff 3 800] ------- [3:255 -1:255 28 0] [0x2 3 1 [5 0] [0 4]] (REQUEST)
r 0.310629794 _2_ RTR  --- 0 AODV 48 [0 ffffffff 3 800] ------- [3:255 -1:255 28 0] [0x2 3 1 [5 0] [0 4]] (REQUEST)
s 0.310794794 _4_ MAC  --- 0 ARP 86 [0 ffffffff 4 806] ------- [REQUEST 4/4 0/0]
r 0.311482810 _1_ MAC  --- 0 ARP 28 [0 ffffffff 4 806] ------- [REQUEST 4/4 0/0]
r 0.311482960 _3_ MAC  --- 0 ARP 28 [0 ffffffff 4 806] ------- [REQUEST 4/4 0/0]
r 0.311483127 _2_ MAC  --- 0 ARP 28 [0 ffffffff 4 806] ------- [REQUEST 4/4 0/0]
r 0.311483627 _0_ MAC  --- 0 ARP 28 [0 ffffffff 4 806] ------- [REQUEST 4/4 0/0]
r 0.311483627 _5_ MAC  --- 0 ARP 28 [0 ffffffff 4 806] ------- [REQUEST 4/4 0/0]
s 0.311593127 _2_ MAC  --- 0 AODV 106 [0 ffffffff 2 800] ------- [2:255 -1:255 28 0] [0x2 3 1 [5 0] [0 4]] (REQUEST)
r 0.312441294 _3_ MAC  --- 0 AODV 48 [0 ffffffff 2 800] ------- [2:255 -1:255 28 0] [0x2 3 1 [5 0] [0 4]] (REQUEST)
r 0.312441444 _1_ MAC  --- 0 AODV 48 [0 ffffffff 2 800] ------- [2:255 -1:255 28 0] [0x2 3 1 [5 0] [0 4]] (REQUEST)
r 0.312441460 _4_ MAC  --- 0 AODV 48 [0 ffffffff 2 800] ------- [2:255 -1:255 28 0] [0x2 3 1 [5 0] [0 4]] (REQUEST)
r 0.312466294 _3_ RTR  --- 0 AODV 48 [0 ffffffff 2 800] ------- [2:255 -1:255 28 0] [0x2 3 1 [5 0] [0 4]] (REQUEST)
r 0.312466444 _1_ RTR  --- 0 AODV 48 [0 ffffffff 2 800] ------- [2:255 -1:255 28 0] [0x2 3 1 [5 0] [0 4]] (REQUEST)
r 0.312466460 _4_ RTR  --- 0 AODV 48 [0 ffffffff 2 800] ------- [2:255 -1:255 28 0] [0x2 3 1 [5 0] [0 4]] (REQUEST)
s 0.313036194 _0_ MAC  --- 0 RTS 44 [52e 4 0 0] 
s 0.313126103 _1_ RTR  --- 0 AODV 48 [0 ffffffff 4 800] ------- [1:255 -1:255 28 0] [0x2 3 1 [5 0] [0 4]] (REQUEST)
r 0.313389028 _4_ MAC  --- 0 RTS 44 [52e 4 0 0] 
s 0.313399028 _4_ MAC  --- 0 CTS 38 [3f4 0 0 0] 
r 0.313703861 _0_ MAC  --- 0 CTS 38 [3f4 0 0 0] 
s 0.313713861 _0_ MAC  --- 0 ARP 86 [13a 4 0 806] ------- [REPLY 0/0 4/4]
r 0.314402694 _4_ MAC  --- 0 ARP 28 [13a 4 0 806] ------- [REPLY 0/0 4/4]
s 0.314412694 _4_ MAC  --- 0 ACK 38 [0 0 0 0] 
r 0.314717528 _0_ MAC  --- 0 ACK 38 [0 0 0 0] 
s 0.315056704 _1_ MAC  --- 0 AODV 106 [0 ffffffff 1 800] ------- [1:255 -1:255 28 0] [0x2 3 1 [5 0] [0 4]] (REQUEST)
r 0.315904721 _4_ MAC  --- 0 AODV 48 [0 ffffffff 1 800] ------- [1:255 -1:255 28 0] [0x2 3 1 [5 0] [0 4]] (REQUEST)
r 0.315904854 _3_ MAC  --- 0 AODV 48 [0 ffffffff 1 800] ------- [1:255 -1:255 28 0] [0x2 3 1 [5 0] [0 4]] (REQUEST)
r 0.315905021 _2_ MAC  --- 0 AODV 48 [0 ffffffff 1 800] ------- [1:255 -1:255 28 0] [0x2 3 1 [5 0] [0 4]] (REQUEST)
r 0.315929721 _4_ RTR  --- 0 AODV 48 [0 ffffffff 1 800] ------- [1:255 -1:255 28 0] [0x2 3 1 [5 0] [0 4]] (REQUEST)
r 0.315929854 _3_ RTR  --- 0 AODV 48 [0 ffffffff 1 800] ------- [1:255 -1:255 28 0] [0x2 3 1 [5 0] [0 4]] (REQUEST)
r 0.315930021 _2_ RTR  --- 0 AODV 48 [0 ffffffff 1 800] ------- [1:255 -1:255 28 0] [0x2 3 1 [5 0] [0 4]] (REQUEST)
s 0.316114721 _4_ MAC  --- 0 RTS 44 [5ae 0 4 0] 
r 0.316467554 _0_ MAC  --- 0 RTS 44 [5ae 0 4 0] 
s 0.316477554 _0_ MAC  --- 0 CTS 38 [474 4 0 0] 
r 0.316782388 _4_ MAC  --- 0 CTS 38 [474 4 0 0] 
s 0.316792388 _4_ MAC  --- 0 AODV 102 [13a 0 4 800] ------- [5:255 0:255 29 0] [0x4 2 [5 4] 10.000000] (REPLY)
r 0.317609221 _0_ MAC  --- 0 AODV 44 [13a 0 4 800] ------- [5:255 0:255 29 0] [0x4 2 [5 4] 10.000000] (REPLY)
s 0.317619221 _0_ MAC  --- 0 ACK 38 [0 4 0 0] 
r 0.317634221 _0_ RTR  --- 0 AODV 44 [13a 0 4 800] ------- [5:255 0:255 29 0] [0x4 2 [5 4] 10.000000] (REPLY)
s 0.317634221 _0_ RTR  --- 0 cbr 3020 [0 0 0 0] ------- [0:2 5:0 30 4] [0] 0 0
r 0.317924054 _4_ MAC  --- 0 ACK 38 [0 4 0 0] 
s 0.318373221 _0_ MAC  --- 0 RTS 44 [62ae 4 0 0] 
r 0.318726054 _4_ MAC  --- 0 RTS 44 [62ae 4 0 0] 
s 0.318736054 _4_ MAC  --- 0 CTS 38 [6174 0 0 0] 
r 0.319040888 _0_ MAC  --- 0 CTS 38 [6174 0 0 0] 
s 0.319050888 _0_ MAC  --- 0 cbr 3078 [13a 4 0 800] ------- [0:2 5:0 30 4] [0] 0 0
s 0.330000000 _0_ AGT  --- 1 cbr 3000 [0 0 0 0] ------- [0:2 5:0 32 0] [1] 0 0
r 0.330000000 _0_ RTR  --- 1 cbr 3000 [0 0 0 0] ------- [0:2 5:0 32 0] [1] 0 0
s 0.330000000 _0_ RTR  --- 1 cbr 3020 [0 0 0 0] ------- [0:2 5:0 30 4] [1] 0 0
r 0.343675721 _4_ MAC  --- 0 cbr 3020 [13a 4 0 800] ------- [0:2 5:0 30 4] [0] 1 0
s 0.343685721 _4_ MAC  --- 0 ACK 38 [0 0 0 0] 
r 0.343700721 _4_ RTR  --- 0 cbr 3020 [13a 4 0 800] ------- [0:2 5:0 30 4] [0] 1 0
f 0.343700721 _4_ RTR  --- 0 cbr 3020 [13a 4 0 800] ------- [0:2 5:0 29 5] [0] 1 0
r 0.343990554 _0_ MAC  --- 0 ACK 38 [0 0 0 0] 
s 0.344179721 _4_ MAC  --- 0 RTS 44 [62ae 5 4 0] 
r 0.344532554 _5_ MAC  --- 0 RTS 44 [62ae 5 4 0] 
s 0.344542554 _5_ MAC  --- 0 CTS 38 [6174 4 0 0] 
r 0.344847388 _4_ MAC  --- 0 CTS 38 [6174 4 0 0] 
s 0.344857388 _4_ MAC  --- 0 cbr 3078 [13a 5 4 800] ------- [0:2 5:0 29 5] [0] 1 0
s 0.360000000 _0_ AGT  --- 2 cbr 3000 [0 0 0 0] ------- [0:2 5:0 32 0] [2] 0 0
r 0.360000000 _0_ RTR  --- 2 cbr 3000 [0 0 0 0] ------- [0:2 5:0 32 0] [2] 0 0
s 0.360000000 _0_ RTR  --- 2 cbr 3020 [0 0 0 0] ------- [0:2 5:0 30 4] [2] 0 0
r 0.369482221 _5_ MAC  --- 0 cbr 3020 [13a 5 4 800] ------- [0:2 5:0 29 5] [0] 2 0
s 0.369492221 _5_ MAC  --- 0 ACK 38 [0 4 0 0] 
r 0.369507221 _5_ AGT  --- 0 cbr 3020 [13a 5 4 800] ------- [0:2 5:0 29 5] [0] 2 0
r 0.369797054 _4_ MAC  --- 0 ACK 38 [0 4 0 0] 
s 0.370431554 _0_ MAC  --- 0 RTS 44 [62ae 4 0 0] 
r 0.370784388 _4_ MAC  --- 0 RTS 44 [62ae 4 0 0] 
s 0.370794388 _4_ MAC  --- 0 CTS 38 [6174 0 0 0] 
r 0.371099221 _0_ MAC  --- 0 CTS 38 [6174 0 0 0] 
s 0.371109221 _0_ MAC  --- 1 cbr 3078 [13a 4 0 800] ------- [0:2 5:0 30 4] [1] 0 0
s 0.390000000 _0_ AGT  --- 3 cbr 3000 [0 0 0 0] ------- [0:2 5:0 32 0] [3] 0 0
r 0.390000000 _0_ RTR  --- 3 cbr 3000 [0 0 0 0] ------- [0:2 5:0 32 0] [3] 0 0
s 0.390000000 _0_ RTR  --- 3 cbr 3020 [0 0 0 0] ------- [0:2 5:0 30 4] [3] 0 0
r 0.395734054 _4_ MAC  --- 1 cbr 3020 [13a 4 0 800] ------- [0:2 5:0 30 4] [1] 1 0
s 0.395744054 _4_ MAC  --- 0 ACK 38 [0 0 0 0] 
r 0.395759054 _4_ RTR  --- 1 cbr 3020 [13a 4 0 800] ------- [0:2 5:0 30 4] [1] 1 0
f 0.395759054 _4_ RTR  --- 1 cbr 3020 [13a 4 0 800] ------- [0:2 5:0 29 5] [1] 1 0
r 0.396048888 _0_ MAC  --- 0 ACK 38 [0 0 0 0] 
s 0.396398054 _4_ MAC  --- 0 RTS 44 [62ae 5 4 0] 
r 0.396750888 _5_ MAC  --- 0 RTS 44 [62ae 5 4 0] 
s 0.396760888 _5_ MAC  --- 0 CTS 38 [6174 4 0 0] 
r 0.397065721 _4_ MAC  --- 0 CTS 38 [6174 4 0 0] 
s 0.397075721 _4_ MAC  --- 1 cbr 3078 [13a 5 4 800] ------- [0:2 5:0 29 5] [1] 1 0
s 0.420000000 _0_ AGT  --- 4 cbr 3000 [0 0 0 0] ------- [0:2 5:0 32 0] [4] 0 0
r 0.420000000 _0_ RTR  --- 4 cbr 3000 [0 0 0 0] ------- [0:2 5:0 32 0] [4] 0 0
s 0.420000000 _0_ RTR  --- 4 cbr 3020 [0 0 0 0] ------- [0:2 5:0 30 4] [4] 0 0
r 0.421700554 _5_ MAC  --- 1 cbr 3020 [13a 5 4 800] ------- [0:2 5:0 29 5] [1] 2 0
s 0.421710554 _5_ MAC  --- 0 ACK 38 [0 4 0 0] 
r 0.421725554 _5_ AGT  --- 1 cbr 3020 [13a 5 4 800] ------- [0:2 5:0 29 5] [1] 2 0
r 0.422015388 _4_ MAC  --- 0 ACK 38 [0 4 0 0] 
s 0.422489888 _0_ MAC  --- 0 RTS 44 [62ae 4 0 0] 
r 0.422842721 _4_ MAC  --- 0 RTS 44 [62ae 4 0 0] 
s 0.422852721 _4_ MAC  --- 0 CTS 38 [6174 0 0 0] 
r 0.423157554 _0_ MAC  --- 0 CTS 38 [6174 0 0 0] 
s 0.423167554 _0_ MAC  --- 2 cbr 3078 [13a 4 0 800] ------- [0:2 5:0 30 4] [2] 0 0
r 0.447792388 _4_ MAC  --- 2 cbr 3020 [13a 4 0 800] ------- [0:2 5:0 30 4] [2] 1 0
s 0.447802388 _4_ MAC  --- 0 ACK 38 [0 0 0 0] 
r 0.447817388 _4_ RTR  --- 2 cbr 3020 [13a 4 0 800] ------- [0:2 5:0 30 4] [2] 1 0
f 0.447817388 _4_ RTR  --- 2 cbr 3020 [13a 4 0 800] ------- [0:2 5:0 29 5] [2] 1 0
r 0.448107221 _0_ MAC  --- 0 ACK 38 [0 0 0 0] 
s 0.448236388 _4_ MAC  --- 0 RTS 44 [62ae 5 4 0] 
r 0.448589221 _5_ MAC  --- 0 RTS 44 [62ae 5 4 0] 
s 0.448599221 _5_ MAC  --- 0 CTS 38 [6174 4 0 0] 
r 0.448904054 _4_ MAC  --- 0 CTS 38 [6174 4 0 0] 
s 0.448914054 _4_ MAC  --- 2 cbr 3078 [13a 5 4 800] ------- [0:2 5:0 29 5] [2] 1 0
s 0.450000000 _0_ AGT  --- 5 cbr 3000 [0 0 0 0] ------- [0:2 5:0 32 0] [5] 0 0
r 0.450000000 _0_ RTR  --- 5 cbr 3000 [0 0 0 0] ------- [0:2 5:0 32 0] [5] 0 0
s 0.450000000 _0_ RTR  --- 5 cbr 3020 [0 0 0 0] ------- [0:2 5:0 30 4] [5] 0 0
r 0.473538888 _5_ MAC  --- 2 cbr 3020 [13a 5 4 800] ------- [0:2 5:0 29 5] [2] 2 0
s 0.473548888 _5_ MAC  --- 0 ACK 38 [0 4 0 0] 
r 0.473563888 _5_ AGT  --- 2 cbr 3020 [13a 5 4 800] ------- [0:2 5:0 29 5] [2] 2 0
r 0.473853721 _4_ MAC  --- 0 ACK 38 [0 4 0 0] 
s 0.474468221 _0_ MAC  --- 0 RTS 44 [62ae 4 0 0] 
r 0.474821054 _4_ MAC  --- 0 RTS 44 [62ae 4 0 0] 
s 0.474831054 _4_ MAC  --- 0 CTS 38 [6174 0 0 0] 
r 0.475135888 _0_ MAC  --- 0 CTS 38 [6174 0 0 0] 
s 0.475145888 _0_ MAC  --- 3 cbr 3078 [13a 4 0 800] ------- [0:2 5:0 30 4] [3] 0 0
s 0.480000000 _0_ AGT  --- 6 cbr 3000 [0 0 0 0] ------- [0:2 5:0 32 0] [6] 0 0
r 0.480000000 _0_ RTR  --- 6 cbr 3000 [0 0 0 0] ------- [0:2 5:0 32 0] [6] 0 0
s 0.480000000 _0_ RTR  --- 6 cbr 3020 [0 0 0 0] ------- [0:2 5:0 30 4] [6] 0 0
r 0.499770721 _4_ MAC  --- 3 cbr 3020 [13a 4 0 800] ------- [0:2 5:0 30 4] [3] 1 0
s 0.499780721 _4_ MAC  --- 0 ACK 38 [0 0 0 0] 
r 0.499795721 _4_ RTR  --- 3 cbr 3020 [13a 4 0 800] ------- [0:2 5:0 30 4] [3] 1 0
f 0.499795721 _4_ RTR  --- 3 cbr 3020 [13a 4 0 800] ------- [0:2 5:0 29 5] [3] 1 0
r 0.500085554 _0_ MAC  --- 0 ACK 38 [0 0 0 0] 
s 0.500234721 _4_ MAC  --- 0 RTS 44 [62ae 5 4 0] 
r 0.500587554 _5_ MAC  --- 0 RTS 44 [62ae 5 4 0] 
s 0.500597554 _5_ MAC  --- 0 CTS 38 [6174 4 0 0] 
r 0.500902388 _4_ MAC  --- 0 CTS 38 [6174 4 0 0] 
s 0.500912388 _4_ MAC  --- 3 cbr 3078 [13a 5 4 800] ------- [0:2 5:0 29 5] [3] 1 0
s 0.510000000 _0_ AGT  --- 7 cbr 3000 [0 0 0 0] ------- [0:2 5:0 32 0] [7] 0 0
r 0.510000000 _0_ RTR  --- 7 cbr 3000 [0 0 0 0] ------- [0:2 5:0 32 0] [7] 0 0
s 0.510000000 _0_ RTR  --- 7 cbr 3020 [0 0 0 0] ------- [0:2 5:0 30 4] [7] 0 0
r 0.525537221 _5_ MAC  --- 3 cbr 3020 [13a 5 4 800] ------- [0:2 5:0 29 5] [3] 2 0
s 0.525547221 _5_ MAC  --- 0 ACK 38 [0 4 0 0] 
r 0.525562221 _5_ AGT  --- 3 cbr 3020 [13a 5 4 800] ------- [0:2 5:0 29 5] [3] 2 0
r 0.525852054 _4_ MAC  --- 0 ACK 38 [0 4 0 0] 
s 0.526706554 _0_ MAC  --- 0 RTS 44 [62ae 4 0 0] 
r 0.527059388 _4_ MAC  --- 0 RTS 44 [62ae 4 0 0] 
s 0.527069388 _4_ MAC  --- 0 CTS 38 [6174 0 0 0] 
r 0.527374221 _0_ MAC  --- 0 CTS 38 [6174 0 0 0] 
s 0.527384221 _0_ MAC  --- 4 cbr 3078 [13a 4 0 800] ------- [0:2 5:0 30 4] [4] 0 0
s 0.540000000 _0_ AGT  --- 8 cbr 3000 [0 0 0 0] ------- [0:2 5:0 32 0] [8] 0 0
r 0.540000000 _0_ RTR  --- 8 cbr 3000 [0 0 0 0] ------- [0:2 5:0 32 0] [8] 0 0
s 0.540000000 _0_ RTR  --- 8 cbr 3020 [0 0 0 0] ------- [0:2 5:0 30 4] [8] 0 0
r 0.552009054 _4_ MAC  --- 4 cbr 3020 [13a 4 0 800] ------- [0:2 5:0 30 4] [4] 1 0
s 0.552019054 _4_ MAC  --- 0 ACK 38 [0 0 0 0] 
r 0.552034054 _4_ RTR  --- 4 cbr 3020 [13a 4 0 800] ------- [0:2 5:0 30 4] [4] 1 0
f 0.552034054 _4_ RTR  --- 4 cbr 3020 [13a 4 0 800] ------- [0:2 5:0 29 5] [4] 1 0
r 0.552323888 _0_ MAC  --- 0 ACK 38 [0 0 0 0] 
s 0.552573054 _4_ MAC  --- 0 RTS 44 [62ae 5 4 0] 
r 0.552925888 _5_ MAC  --- 0 RTS 44 [62ae 5 4 0] 
s 0.552935888 _5_ MAC  --- 0 CTS 38 [6174 4 0 0] 
r 0.553240721 _4_ MAC  --- 0 CTS 38 [6174 4 0 0] 
s 0.553250721 _4_ MAC  --- 4 cbr 3078 [13a 5 4 800] ------- [0:2 5:0 29 5] [4] 1 0
s 0.570000000 _0_ AGT  --- 9 cbr 3000 [0 0 0 0] ------- [0:2 5:0 32 0] [9] 0 0
r 0.570000000 _0_ RTR  --- 9 cbr 3000 [0 0 0 0] ------- [0:2 5:0 32 0] [9] 0 0
s 0.570000000 _0_ RTR  --- 9 cbr 3020 [0 0 0 0] ------- [0:2 5:0 30 4] [9] 0 0
r 0.577875554 _5_ MAC  --- 4 cbr 3020 [13a 5 4 800] ------- [0:2 5:0 29 5] [4] 2 0
s 0.577885554 _5_ MAC  --- 0 ACK 38 [0 4 0 0] 
r 0.577900554 _5_ AGT  --- 4 cbr 3020 [13a 5 4 800] ------- [0:2 5:0 29 5] [4] 2 0
r 0.578190388 _4_ MAC  --- 0 ACK 38 [0 4 0 0] 
s 0.579004888 _0_ MAC  --- 0 RTS 44 [62ae 4 0 0] 
r 0.579357721 _4_ MAC  --- 0 RTS 44 [62ae 4 0 0] 
s 0.579367721 _4_ MAC  --- 0 CTS 38 [6174 0 0 0] 
r 0.579672554 _0_ MAC  --- 0 CTS 38 [6174 0 0 0] 
s 0.579682554 _0_ MAC  --- 5 cbr 3078 [13a 4 0 800] ------- [0:2 5:0 30 4] [5] 0 0
s 0.600000000 _0_ AGT  --- 10 cbr 3000 [0 0 0 0] ------- [0:2 5:0 32 0] [10] 0 0
r 0.600000000 _0_ RTR  --- 10 cbr 3000 [0 0 0 0] ------- [0:2 5:0 32 0] [10] 0 0
s 0.600000000 _0_ RTR  --- 10 cbr 3020 [0 0 0 0] ------- [0:2 5:0 30 4] [10] 0 0
r 0.604307388 _4_ MAC  --- 5 cbr 3020 [13a 4 0 800] ------- [0:2 5:0 30 4] [5] 1 0
s 0.604317388 _4_ MAC  --- 0 ACK 38 [0 0 0 0] 
r 0.604332388 _4_ RTR  --- 5 cbr 3020 [13a 4 0 800] ------- [0:2 5:0 30 4] [5] 1 0
f 0.604332388 _4_ RTR  --- 5 cbr 3020 [13a 4 0 800] ------- [0:2 5:0 29 5] [5] 1 0
r 0.604622221 _0_ MAC  --- 0 ACK 38 [0 0 0 0] 
s 0.604791388 _4_ MAC  --- 0 RTS 44 [62ae 5 4 0] 
r 0.605144221 _5_ MAC  --- 0 RTS 44 [62ae 5 4 0] 
s 0.605154221 _5_ MAC  --- 0 CTS 38 [6174 4 0 0] 
r 0.605459054 _4_ MAC  --- 0 CTS 38 [6174 4 0 0] 
s 0.605469054 _4_ MAC  --- 5 cbr 3078 [13a 5 4 800] ------- [0:2 5:0 29 5] [5] 1 0
s 0.630000000 _0_ AGT  --- 11 cbr 3000 [0 0 0 0] ------- [0:2 5:0 32 0] [11] 0 0
r 0.630000000 _0_ RTR  --- 11 cbr 3000 [0 0 0 0] ------- [0:2 5:0 32 0] [11] 0 0
s 0.630000000 _0_ RTR  --- 11 cbr 3020 [0 0 0 0] ------- [0:2 5:0 30 4] [11] 0 0
r 0.630093888 _5_ MAC  --- 5 cbr 3020 [13a 5 4 800] ------- [0:2 5:0 29 5] [5] 2 0
s 0.630103888 _5_ MAC  --- 0 ACK 38 [0 4 0 0] 
r 0.630118888 _5_ AGT  --- 5 cbr 3020 [13a 5 4 800] ------- [0:2 5:0 29 5] [5] 2 0
r 0.630408721 _4_ MAC  --- 0 ACK 38 [0 4 0 0] 
s 0.631043221 _0_ MAC  --- 0 RTS 44 [62ae 4 0 0] 
r 0.631396054 _4_ MAC  --- 0 RTS 44 [62ae 4 0 0] 
s 0.631406054 _4_ MAC  --- 0 CTS 38 [6174 0 0 0] 
r 0.631710888 _0_ MAC  --- 0 CTS 38 [6174 0 0 0] 
s 0.631720888 _0_ MAC  --- 6 cbr 3078 [13a 4 0 800] ------- [0:2 5:0 30 4] [6] 0 0
r 0.656345721 _4_ MAC  --- 6 cbr 3020 [13a 4 0 800] ------- [0:2 5:0 30 4] [6] 1 0
s 0.656355721 _4_ MAC  --- 0 ACK 38 [0 0 0 0] 
r 0.656370721 _4_ RTR  --- 6 cbr 3020 [13a 4 0 800] ------- [0:2 5:0 30 4] [6] 1 0
f 0.656370721 _4_ RTR  --- 6 cbr 3020 [13a 4 0 800] ------- [0:2 5:0 29 5] [6] 1 0
r 0.656660554 _0_ MAC  --- 0 ACK 38 [0 0 0 0] 
s 0.656890554 _0_ MAC  --- 0 RTS 44 [62ae 4 0 0] 
r 0.657243388 _4_ MAC  --- 0 RTS 44 [62ae 4 0 0] 
s 0.657253388 _4_ MAC  --- 0 CTS 38 [6174 0 0 0] 
r 0.657558221 _0_ MAC  --- 0 CTS 38 [6174 0 0 0] 
s 0.657568221 _0_ MAC  --- 7 cbr 3078 [13a 4 0 800] ------- [0:2 5:0 30 4] [7] 0 0
s 0.660000000 _0_ AGT  --- 12 cbr 3000 [0 0 0 0] ------- [0:2 5:0 32 0] [12] 0 0
r 0.660000000 _0_ RTR  --- 12 cbr 3000 [0 0 0 0] ------- [0:2 5:0 32 0] [12] 0 0
s 0.660000000 _0_ RTR  --- 12 cbr 3020 [0 0 0 0] ------- [0:2 5:0 30 4] [12] 0 0
r 0.682193054 _4_ MAC  --- 7 cbr 3020 [13a 4 0 800] ------- [0:2 5:0 30 4] [7] 1 0
s 0.682203054 _4_ MAC  --- 0 ACK 38 [0 0 0 0] 
r 0.682218054 _4_ RTR  --- 7 cbr 3020 [13a 4 0 800] ------- [0:2 5:0 30 4] [7] 1 0
f 0.682218054 _4_ RTR  --- 7 cbr 3020 [13a 4 0 800] ------- [0:2 5:0 29 5] [7] 1 0
r 0.682507888 _0_ MAC  --- 0 ACK 38 [0 0 0 0] 
s 0.682657054 _4_ MAC  --- 0 RTS 44 [62ae 5 4 0] 
r 0.683009888 _5_ MAC  --- 0 RTS 44 [62ae 5 4 0] 
s 0.683019888 _5_ MAC  --- 0 CTS 38 [6174 4 0 0] 
r 0.683324721 _4_ MAC  --- 0 CTS 38 [6174 4 0 0] 
s 0.683334721 _4_ MAC  --- 6 cbr 3078 [13a 5 4 800] ------- [0:2 5:0 29 5] [6] 1 0
s 0.690000000 _0_ AGT  --- 13 cbr 3000 [0 0 0 0] ------- [0:2 5:0 32 0] [13] 0 0
r 0.690000000 _0_ RTR  --- 13 cbr 3000 [0 0 0 0] ------- [0:2 5:0 32 0] [13] 0 0
s 0.690000000 _0_ RTR  --- 13 cbr 3020 [0 0 0 0] ------- [0:2 5:0 30 4] [13] 0 0
r 0.707959554 _5_ MAC  --- 6 cbr 3020 [13a 5 4 800] ------- [0:2 5:0 29 5] [6] 2 0
s 0.707969554 _5_ MAC  --- 0 ACK 38 [0 4 0 0] 
r 0.707984554 _5_ AGT  --- 6 cbr 3020 [13a 5 4 800] ------- [0:2 5:0 29 5] [6] 2 0
r 0.708274388 _4_ MAC  --- 0 ACK 38 [0 4 0 0] 
s 0.708804388 _4_ MAC  --- 0 RTS 44 [62ae 5 4 0] 
r 0.709157221 _5_ MAC  --- 0 RTS 44 [62ae 5 4 0] 
s 0.709167221 _5_ MAC  --- 0 CTS 38 [6174 4 0 0] 
r 0.709472054 _4_ MAC  --- 0 CTS 38 [6174 4 0 0] 
s 0.709482054 _4_ MAC  --- 7 cbr 3078 [13a 5 4 800] ------- [0:2 5:0 29 5] [7] 1 0
s 0.720000000 _0_ AGT  --- 14 cbr 3000 [0 0 0 0] ------- [0:2 5:0 32 0] [14] 0 0
r 0.720000000 _0_ RTR  --- 14 cbr 3000 [0 0 0 0] ------- [0:2 5:0 32 0] [14] 0 0
s 0.720000000 _0_ RTR  --- 14 cbr 3020 [0 0 0 0] ------- [0:2 5:0 30 4] [14] 0 0
r 0.734106888 _5_ MAC  --- 7 cbr 3020 [13a 5 4 800] ------- [0:2 5:0 29 5] [7] 2 0
s 0.734116888 _5_ MAC  --- 0 ACK 38 [0 4 0 0] 
r 0.734131888 _5_ AGT  --- 7 cbr 3020 [13a 5 4 800] ------- [0:2 5:0 29 5] [7] 2 0
r 0.734421721 _4_ MAC  --- 0 ACK 38 [0 4 0 0] 
s 0.734936221 _0_ MAC  --- 0 RTS 44 [62ae 4 0 0] 
r 0.735289054 _4_ MAC  --- 0 RTS 44 [62ae 4 0 0] 
s 0.735299054 _4_ MAC  --- 0 CTS 38 [6174 0 0 0] 
r 0.735603888 _0_ MAC  --- 0 CTS 38 [6174 0 0 0] 
s 0.735613888 _0_ MAC  --- 8 cbr 3078 [13a 4 0 800] ------- [0:2 5:0 30 4] [8] 0 0
s 0.750000000 _0_ AGT  --- 15 cbr 3000 [0 0 0 0] ------- [0:2 5:0 32 0] [15] 0 0
r 0.750000000 _0_ RTR  --- 15 cbr 3000 [0 0 0 0] ------- [0:2 5:0 32 0] [15] 0 0
s 0.750000000 _0_ RTR  --- 15 cbr 3020 [0 0 0 0] ------- [0:2 5:0 30 4] [15] 0 0
r 0.760238721 _4_ MAC  --- 8 cbr 3020 [13a 4 0 800] ------- [0:2 5:0 30 4] [8] 1 0
s 0.760248721 _4_ MAC  --- 0 ACK 38 [0 0 0 0] 
r 0.760263721 _4_ RTR  --- 8 cbr 3020 [13a 4 0 800] ------- [0:2 5:0 30 4] [8] 1 0
f 0.760263721 _4_ RTR  --- 8 cbr 3020 [13a 4 0 800] ------- [0:2 5:0 29 5] [8] 1 0
r 0.760553554 _0_ MAC  --- 0 ACK 38 [0 0 0 0] 
s 0.760822721 _4_ MAC  --- 0 RTS 44 [62ae 5 4 0] 
r 0.761175554 _5_ MAC  --- 0 RTS 44 [62ae 5 4 0] 
s 0.761185554 _5_ MAC  --- 0 CTS 38 [6174 4 0 0] 
r 0.761490388 _4_ MAC  --- 0 CTS 38 [6174 4 0 0] 
s 0.761500388 _4_ MAC  --- 8 cbr 3078 [13a 5 4 800] ------- [0:2 5:0 29 5] [8] 1 0
s 0.780000000 _0_ AGT  --- 16 cbr 3000 [0 0 0 0] ------- [0:2 5:0 32 0] [16] 0 0
r 0.780000000 _0_ RTR  --- 16 cbr 3000 [0 0 0 0] ------- [0:2 5:0 32 0] [16] 0 0
s 0.780000000 _0_ RTR  --- 16 cbr 3020 [0 0 0 0] ------- [0:2 5:0 30 4] [16] 0 0
r 0.786125221 _5_ MAC  --- 8 cbr 3020 [13a 5 4 800] ------- [0:2 5:0 29 5] [8] 2 0
s 0.786135221 _5_ MAC  --- 0 ACK 38 [0 4 0 0] 
r 0.786150221 _5_ AGT  --- 8 cbr 3020 [13a 5 4 800] ------- [0:2 5:0 29 5] [8] 2 0
r 0.786440054 _4_ MAC  --- 0 ACK 38 [0 4 0 0] 
s 0.786974554 _0_ MAC  --- 0 RTS 44 [62ae 4 0 0] 
r 0.787327388 _4_ MAC  --- 0 RTS 44 [62ae 4 0 0] 
s 0.787337388 _4_ MAC  --- 0 CTS 38 [6174 0 0 0] 
r 0.787642221 _0_ MAC  --- 0 CTS 38 [6174 0 0 0] 
s 0.787652221 _0_ MAC  --- 9 cbr 3078 [13a 4 0 800] ------- [0:2 5:0 30 4] [9] 0 0
s 0.810000000 _0_ AGT  --- 17 cbr 3000 [0 0 0 0] ------- [0:2 5:0 32 0] [17] 0 0
r 0.810000000 _0_ RTR  --- 17 cbr 3000 [0 0 0 0] ------- [0:2 5:0 32 0] [17] 0 0
s 0.810000000 _0_ RTR  --- 17 cbr 3020 [0 0 0 0] ------- [0:2 5:0 30 4] [17] 0 0
r 0.812277054 _4_ MAC  --- 9 cbr 3020 [13a 4 0 800] ------- [0:2 5:0 30 4] [9] 1 0
s 0.812287054 _4_ MAC  --- 0 ACK 38 [0 0 0 0] 
r 0.812302054 _4_ RTR  --- 9 cbr 3020 [13a 4 0 800] ------- [0:2 5:0 30 4] [9] 1 0
f 0.812302054 _4_ RTR  --- 9 cbr 3020 [13a 4 0 800] ------- [0:2 5:0 29 5] [9] 1 0
r 0.812591888 _0_ MAC  --- 0 ACK 38 [0 0 0 0] 
s 0.812721888 _0_ MAC  --- 0 RTS 44 [62ae 4 0 0] 
r 0.813074721 _4_ MAC  --- 0 RTS 44 [62ae 4 0 0] 
s 0.813084721 _4_ MAC  --- 0 CTS 38 [6174 0 0 0] 
r 0.813389554 _0_ MAC  --- 0 CTS 38 [6174 0 0 0] 
s 0.813399554 _0_ MAC  --- 10 cbr 3078 [13a 4 0 800] ------- [0:2 5:0 30 4] [10] 0 0
r 0.838024388 _4_ MAC  --- 10 cbr 3020 [13a 4 0 800] ------- [0:2 5:0 30 4] [10] 1 0
s 0.838034388 _4_ MAC  --- 0 ACK 38 [0 0 0 0] 
r 0.838049388 _4_ RTR  --- 10 cbr 3020 [13a 4 0 800] ------- [0:2 5:0 30 4] [10] 1 0
f 0.838049388 _4_ RTR  --- 10 cbr 3020 [13a 4 0 800] ------- [0:2 5:0 29 5] [10] 1 0
r 0.838339221 _0_ MAC  --- 0 ACK 38 [0 0 0 0] 
s 0.838528388 _4_ MAC  --- 0 RTS 44 [62ae 5 4 0] 
r 0.838881221 _5_ MAC  --- 0 RTS 44 [62ae 5 4 0] 
s 0.838891221 _5_ MAC  --- 0 CTS 38 [6174 4 0 0] 
r 0.839196054 _4_ MAC  --- 0 CTS 38 [6174 4 0 0] 
s 0.839206054 _4_ MAC  --- 9 cbr 3078 [13a 5 4 800] ------- [0:2 5:0 29 5] [9] 1 0
s 0.840000000 _0_ AGT  --- 18 cbr 3000 [0 0 0 0] ------- [0:2 5:0 32 0] [18] 0 0
r 0.840000000 _0_ RTR  --- 18 cbr 3000 [0 0 0 0] ------- [0:2 5:0 32 0] [18] 0 0
s 0.840000000 _0_ RTR  --- 18 cbr 3020 [0 0 0 0] ------- [0:2 5:0 30 4] [18] 0 0
r 0.863830888 _5_ MAC  --- 9 cbr 3020 [13a 5 4 800] ------- [0:2 5:0 29 5] [9] 2 0
s 0.863840888 _5_ MAC  --- 0 ACK 38 [0 4 0 0] 
r 0.863855888 _5_ AGT  --- 9 cbr 3020 [13a 5 4 800] ------- [0:2 5:0 29 5] [9] 2 0
r 0.864145721 _4_ MAC  --- 0 ACK 38 [0 4 0 0] 
s 0.864195721 _4_ MAC  --- 0 RTS 44 [62ae 5 4 0] 
r 0.864548554 _5_ MAC  --- 0 RTS 44 [62ae 5 4 0] 
s 0.864558554 _5_ MAC  --- 0 CTS 38 [6174 4 0 0] 
r 0.864863388 _4_ MAC  --- 0 CTS 38 [6174 4 0 0] 
s 0.864873388 _4_ MAC  --- 10 cbr 3078 [13a 5 4 800] ------- [0:2 5:0 29 5] [10] 1 0
s 0.870000000 _0_ AGT  --- 19 cbr 3000 [0 0 0 0] ------- [0:2 5:0 32 0] [19] 0 0
r 0.870000000 _0_ RTR  --- 19 cbr 3000 [0 0 0 0] ------- [0:2 5:0 32 0] [19] 0 0
s 0.870000000 _0_ RTR  --- 19 cbr 3020 [0 0 0 0] ------- [0:2 5:0 30 4] [19] 0 0
r 0.889498221 _5_ MAC  --- 10 cbr 3020 [13a 5 4 800] ------- [0:2 5:0 29 5] [10] 2 0
s 0.889508221 _5_ MAC  --- 0 ACK 38 [0 4 0 0] 
r 0.889523221 _5_ AGT  --- 10 cbr 3020 [13a 5 4 800] ------- [0:2 5:0 29 5] [10] 2 0
r 0.889813054 _4_ MAC  --- 0 ACK 38 [0 4 0 0] 
s 0.890387554 _0_ MAC  --- 0 RTS 44 [62ae 4 0 0] 
r 0.890740388 _4_ MAC  --- 0 RTS 44 [62ae 4 0 0] 
s 0.890750388 _4_ MAC  --- 0 CTS 38 [6174 0 0 0] 
r 0.891055221 _0_ MAC  --- 0 CTS 38 [6174 0 0 0] 
s 0.891065221 _0_ MAC  --- 11 cbr 3078 [13a 4 0 800] ------- [0:2 5:0 30 4] [11] 0 0
s 0.900000000 _0_ AGT  --- 20 cbr 3000 [0 0 0 0] ------- [0:2 5:0 32 0] [20] 0 0
r 0.900000000 _0_ RTR  --- 20 cbr 3000 [0 0 0 0] ------- [0:2 5:0 32 0] [20] 0 0
s 0.900000000 _0_ RTR  --- 20 cbr 3020 [0 0 0 0] ------- [0:2 5:0 30 4] [20] 0 0
r 0.915690054 _4_ MAC  --- 11 cbr 3020 [13a 4 0 800] ------- [0:2 5:0 30 4] [11] 1 0
s 0.915700054 _4_ MAC  --- 0 ACK 38 [0 0 0 0] 
r 0.915715054 _4_ RTR  --- 11 cbr 3020 [13a 4 0 800] ------- [0:2 5:0 30 4] [11] 1 0
f 0.915715054 _4_ RTR  --- 11 cbr 3020 [13a 4 0 800] ------- [0:2 5:0 29 5] [11] 1 0
r 0.916004888 _0_ MAC  --- 0 ACK 38 [0 0 0 0] 
s 0.916334888 _0_ MAC  --- 0 RTS 44 [62ae 4 0 0] 
r 0.916687721 _4_ MAC  --- 0 RTS 44 [62ae 4 0 0] 
s 0.916697721 _4_ MAC  --- 0 CTS 38 [6174 0 0 0] 
r 0.917002554 _0_ MAC  --- 0 CTS 38 [6174 0 0 0] 
s 0.917012554 _0_ MAC  --- 12 cbr 3078 [13a 4 0 800] ------- [0:2 5:0 30 4] [12] 0 0
s 0.930000000 _0_ AGT  --- 21 cbr 3000 [0 0 0 0] ------- [0:2 5:0 32 0] [21] 0 0
r 0.930000000 _0_ RTR  --- 21 cbr 3000 [0 0 0 0] ------- [0:2 5:0 32 0] [21] 0 0
s 0.930000000 _0_ RTR  --- 21 cbr 3020 [0 0 0 0] ------- [0:2 5:0 30 4] [21] 0 0
r 0.941637388 _4_ MAC  --- 12 cbr 3020 [13a 4 0 800] ------- [0:2 5:0 30 4] [12] 1 0
s 0.941647388 _4_ MAC  --- 0 ACK 38 [0 0 0 0] 
r 0.941662388 _4_ RTR  --- 12 cbr 3020 [13a 4 0 800] ------- [0:2 5:0 30 4] [12] 1 0
f 0.941662388 _4_ RTR  --- 12 cbr 3020 [13a 4 0 800] ------- [0:2 5:0 29 5] [12] 1 0
r 0.941952221 _0_ MAC  --- 0 ACK 38 [0 0 0 0] 
s 0.942021388 _4_ MAC  --- 0 RTS 44 [62ae 5 4 0] 
s 0.942022221 _0_ MAC  --- 0 RTS 44 [62ae 4 0 0] 
D 0.942023554 _5_ MAC  COL 0 RTS 44 [62ae 5 4 0] 
s 0.943589054 _4_ MAC  --- 0 RTS 44 [62ae 5 4 0] 
r 0.943941888 _5_ MAC  --- 0 RTS 44 [62ae 5 4 0] 
s 0.943951888 _5_ MAC  --- 0 CTS 38 [6174 4 0 0] 
r 0.944256721 _4_ MAC  --- 0 CTS 38 [6174 4 0 0] 
s 0.944266721 _4_ MAC  --- 11 cbr 3078 [13a 5 4 800] ------- [0:2 5:0 29 5] [11] 1 0
s 0.960000000 _0_ AGT  --- 22 cbr 3000 [0 0 0 0] ------- [0:2 5:0 32 0] [22] 0 0
r 0.960000000 _0_ RTR  --- 22 cbr 3000 [0 0 0 0] ------- [0:2 5:0 32 0] [22] 0 0
s 0.960000000 _0_ RTR  --- 22 cbr 3020 [0 0 0 0] ------- [0:2 5:0 30 4] [22] 0 0
r 0.968891554 _5_ MAC  --- 11 cbr 3020 [13a 5 4 800] ------- [0:2 5:0 29 5] [11] 2 0
s 0.968901554 _5_ MAC  --- 0 ACK 38 [0 4 0 0] 
r 0.968916554 _5_ AGT  --- 11 cbr 3020 [13a 5 4 800] ------- [0:2 5:0 29 5] [11] 2 0
r 0.969206388 _4_ MAC  --- 0 ACK 38 [0 4 0 0] 
s 0.969376388 _4_ MAC  --- 0 RTS 44 [62ae 5 4 0] 
r 0.969729221 _5_ MAC  --- 0 RTS 44 [62ae 5 4 0] 
s 0.969739221 _5_ MAC  --- 0 CTS 38 [6174 4 0 0] 
r 0.970044054 _4_ MAC  --- 0 CTS 38 [6174 4 0 0] 
s 0.970054054 _4_ MAC  --- 12 cbr 3078 [13a 5 4 800] ------- [0:2 5:0 29 5] [12] 1 0
s 0.990000000 _0_ AGT  --- 23 cbr 3000 [0 0 0 0] ------- [0:2 5:0 32 0] [23] 0 0
r 0.990000000 _0_ RTR  --- 23 cbr 3000 [0 0 0 0] ------- [0:2 5:0 32 0] [23] 0 0
s 0.990000000 _0_ RTR  --- 23 cbr 3020 [0 0 0 0] ------- [0:2 5:0 30 4] [23] 0 0
r 0.994678888 _5_ MAC  --- 12 cbr 3020 [13a 5 4 800] ------- [0:2 5:0 29 5] [12] 2 0
s 0.994688888 _5_ MAC  --- 0 ACK 38 [0 4 0 0] 
r 0.994703888 _5_ AGT  --- 12 cbr 3020 [13a 5 4 800] ------- [0:2 5:0 29 5] [12] 2 0
r 0.994993721 _4_ MAC  --- 0 ACK 38 [0 4 0 0] 
s 0.995528221 _0_ MAC  --- 0 RTS 44 [62ae 4 0 0] 
r 0.995881054 _4_ MAC  --- 0 RTS 44 [62ae 4 0 0] 
s 0.995891054 _4_ MAC  --- 0 CTS 38 [6174 0 0 0] 
r 0.996195888 _0_ MAC  --- 0 CTS 38 [6174 0 0 0] 
s 0.996205888 _0_ MAC  --- 13 cbr 3078 [13a 4 0 800] ------- [0:2 5:0 30 4] [13] 0 0
M 1.00000 1 (400.00, 245.00, 0.00), (400.00, 400.00), 1000.00
M 1.00000 4 (400.00, 250.00, 0.00), (600.00, 600.00), 1000.00
s 1.020000000 _0_ AGT  --- 24 cbr 3000 [0 0 0 0] ------- [0:2 5:0 32 0] [24] 0 0
r 1.020000000 _0_ RTR  --- 24 cbr 3000 [0 0 0 0] ------- [0:2 5:0 32 0] [24] 0 0
s 1.020000000 _0_ RTR  --- 24 cbr 3020 [0 0 0 0] ------- [0:2 5:0 30 4] [24] 0 0
r 1.020830721 _4_ MAC  --- 13 cbr 3020 [13a 4 0 800] ------- [0:2 5:0 30 4] [13] 1 0
s 1.020840721 _4_ MAC  --- 0 ACK 38 [0 0 0 0] 
r 1.020855721 _4_ RTR  --- 13 cbr 3020 [13a 4 0 800] ------- [0:2 5:0 30 4] [13] 1 0