n -t * -s 0  -x 0 -y 0 -Z 0 -z 30+i*100  -v circle -c black
n -t * -s 1  -x 0 -y 0 -Z 0 -z 30+i*100  -v circle -c black
n -t * -s 2  -x 0 -y 0 -Z 0 -z 30+i*100  -v circle -c black
n -t * -s 3  -x 0 -y 0 -Z 0 -z 30+i*100  -v circle -c black
n -t * -s 4  -x 0 -y 0 -Z 0 -z 30+i*100  -v circle -c black
n -t * -s 5  -x 0 -y 0 -Z 0 -z 30+i*100  -v circle -c black
V -t * -v 1.0a5 -a 0
W -t * -x 800 -y 800
A -t * -n 1 -p 0 -o 0x7fffffff -c 30 -a 1
A -t * -h 1 -m 1073741823 -s 0
c -t * -i 4 -n brown
c -t * -i 0 -n blue
c -t * -i 5 -n tan
c -t * -i 1 -n red
c -t * -i 6 -n gold
c -t * -i 2 -n chocolate
c -t * -i 7 -n black
c -t * -i 3 -n red
n -t 0 -s 0 -S COLOR -c blue -o 0 -i blue -I 0
n -t 0 -s 1 -S COLOR -c red -o blue -i red -I blue
n -t 0 -s 5 -S COLOR -c blue -o red -i blue -I red
n -t 0.000000 -s 0 -x 0.000000 -y 0.000000 -U 1341.640786 -V 2683.281573 -T 0.149071
n -t 0.000000 -s 1 -x 0.000000 -y 0.000000 -U 2558.263245 -V 1566.936237 -T 0.156356
n -t 0.000000 -s 2 -x 0.000000 -y 0.000000 -U 2808.987533 -V 1053.370325 -T 0.142400
n -t 0.000000 -s 3 -x 0.000000 -y 0.000000 -U 2683.281573 -V 1341.640786 -T 0.149071
n -t 0.000000 -s 4 -x 0.000000 -y 0.000000 -U 2543.994912 -V 1589.996820 -T 0.157233
n -t 0.000000 -s 5 -x 0.000000 -y 0.000000 -U 2496.150883 -V 1664.100589 -T 0.240370
+ -t 0.300000000 -s 0 -d -1 -p cbr -e 3000 -c 2 -a 0 -i 0 -k AGT 
- -t 0.300000000 -s 0 -d -1 -p cbr -e 3000 -c 2 -a 0 -i 0 -k AGT
h -t 0.300000000 -s 0 -d -1 -p cbr -e 3000 -c 2 -a 0 -i 0 -k AGT
+ -t 0.300000000 -s 0 -d -1 -p AODV -e 48 -c 2 -a 0 -i 0 -k RTR 
- -t 0.300000000 -s 0 -d -1 -p AODV -e 48 -c 2 -a 0 -i 0 -k RTR
h -t 0.300000000 -s 0 -d -1 -p AODV -e 48 -c 2 -a 0 -i 0 -k RTR
+ -t 0.300235000 -s 0 -d -1 -p AODV -e 106 -c 2 -a 0 -i 0 -k MAC 
- -t 0.300235000 -s 0 -d -1 -p AODV -e 106 -c 2 -a 0 -i 0 -k MAC
h -t 0.300235000 -s 0 -d -1 -p AODV -e 106 -c 2 -a 0 -i 0 -k MAC
r -t 0.301083833 -s 4 -d -1 -p AODV -e 48 -c 2 -a 0 -i 0 -k MAC
r -t 0.301108833 -s 4 -d -1 -p AODV -e 48 -c 2 -a 0 -i 0 -k RTR
+ -t 0.303454851 -s 4 -d -1 -p AODV -e 48 -c 2 -a 0 -i 0 -k RTR 
- -t 0.303454851 -s 4 -d -1 -p AODV -e 48 -c 2 -a 0 -i 0 -k RTR
h -t 0.303454851 -s 4 -d -1 -p AODV -e 48 -c 2 -a 0 -i 0 -k RTR
+ -t 0.303889851 -s 4 -d -1 -p AODV -e 106 -c 2 -a 0 -i 0 -k MAC 
- -t 0.303889851 -s 4 -d -1 -p AODV -e 106 -c 2 -a 0 -i 0 -k MAC
h -t 0.303889851 -s 4 -d -1 -p AODV -e 106 -c 2 -a 0 -i 0 -k MAC
r -t 0.304737868 -s 1 -d -1 -p AODV -e 48 -c 2 -a 0 -i 0 -k MAC
r -t 0.304738018 -s 3 -d -1 -p AODV -e 48 -c 2 -a 0 -i 0 -k MAC
r -t 0.304738184 -s 2 -d -1 -p AODV -e 48 -c 2 -a 0 -i 0 -k MAC
r -t 0.304738684 -s 0 -d -1 -p AODV -e 48 -c 2 -a 0 -i 0 -k MAC
r -t 0.304738684 -s 5 -d -1 -p AODV -e 48 -c 2 -a 0 -i 0 -k MAC
r -t 0.304762868 -s 1 -d -1 -p AODV -e 48 -c 2 -a 0 -i 0 -k RTR
r -t 0.304763018 -s 3 -d -1 -p AODV -e 48 -c 2 -a 0 -i 0 -k RTR
r -t 0.304763184 -s 2 -d -1 -p AODV -e 48 -c 2 -a 0 -i 0 -k RTR
r -t 0.304763684 -s 0 -d -1 -p AODV -e 48 -c 2 -a 0 -i 0 -k RTR
r -t 0.304763684 -s 5 -d -1 -p AODV -e 48 -c 2 -a 0 -i 0 -k RTR
+ -t 0.304763684 -s 5 -d 4 -p AODV -e 44 -c 2 -a 0 -i 0 -k RTR 
- -t 0.304763684 -s 5 -d 4 -p AODV -e 44 -c 2 -a 0 -i 0 -k RTR
h -t 0.304763684 -s 5 -d 4 -p AODV -e 44 -c 2 -a 0 -i 0 -k RTR
+ -t 0.304978684 -s 5 -d -1 -p ARP -e 86 -c 2 -a 0 -i 0 -k MAC 
- -t 0.304978684 -s 5 -d -1 -p ARP -e 86 -c 2 -a 0 -i 0 -k MAC
h -t 0.304978684 -s 5 -d -1 -p ARP -e 86 -c 2 -a 0 -i 0 -k MAC
+ -t 0.305191130 -s 2 -d -1 -p AODV -e 48 -c 2 -a 0 -i 0 -k RTR 
- -t 0.305191130 -s 2 -d -1 -p AODV -e 48 -c 2 -a 0 -i 0 -k RTR
h -t 0.305191130 -s 2 -d -1 -p AODV -e 48 -c 2 -a 0 -i 0 -k RTR
r -t 0.305667518 -s 4 -d -1 -p ARP -e 28 -c 2 -a 0 -i 0 -k MAC
+ -t 0.305797518 -s 4 -d -1 -p RTS -e 44 -c 2 -a 0 -i 0 -k MAC 
- -t 0.305797518 -s 4 -d -1 -p RTS -e 44 -c 2 -a 0 -i 0 -k MAC
h -t 0.305797518 -s 4 -d -1 -p RTS -e 44 -c 2 -a 0 -i 0 -k MAC
r -t 0.306150351 -s 5 -d -1 -p RTS -e 44 -c 2 -a 0 -i 0 -k MAC
+ -t 0.306160351 -s 5 -d -1 -p CTS -e 38 -c 2 -a 0 -i 0 -k MAC 
- -t 0.306160351 -s 5 -d -1 -p CTS -e 38 -c 2 -a 0 -i 0 -k MAC
h -t 0.306160351 -s 5 -d -1 -p CTS -e 38 -c 2 -a 0 -i 0 -k MAC
+ -t 0.306404472 -s 3 -d -1 -p AODV -e 48 -c 2 -a 0 -i 0 -k RTR 
- -t 0.306404472 -s 3 -d -1 -p AODV -e 48 -c 2 -a 0 -i 0 -k RTR
h -t 0.306404472 -s 3 -d -1 -p AODV -e 48 -c 2 -a 0 -i 0 -k RTR
r -t 0.306465184 -s 4 -d -1 -p CTS -e 38 -c 2 -a 0 -i 0 -k MAC
+ -t 0.306475184 -s 4 -d -1 -p ARP -e 86 -c 2 -a 0 -i 0 -k MAC 
- -t 0.306475184 -s 4 -d -1 -p ARP -e 86 -c 2 -a 0 -i 0 -k MAC
h -t 0.306475184 -s 4 -d -1 -p ARP -e 86 -c 2 -a 0 -i 0 -k MAC
r -t 0.307164018 -s 5 -d -1 -p ARP -e 28 -c 2 -a 0 -i 0 -k MAC
+ -t 0.307174018 -s 5 -d -1 -p ACK -e 38 -c 2 -a 0 -i 0 -k MAC 
- -t 0.307174018 -s 5 -d -1 -p ACK -e 38 -c 2 -a 0 -i 0 -k MAC
h -t 0.307174018 -s 5 -d -1 -p ACK -e 38 -c 2 -a 0 -i 0 -k MAC
r -t 0.307478851 -s 4 -d -1 -p ACK -e 38 -c 2 -a 0 -i 0 -k MAC
+ -t 0.307688018 -s 5 -d -1 -p RTS -e 44 -c 2 -a 0 -i 0 -k MAC 
- -t 0.307688018 -s 5 -d -1 -p RTS -e 44 -c 2 -a 0 -i 0 -k MAC
h -t 0.307688018 -s 5 -d -1 -p RTS -e 44 -c 2 -a 0 -i 0 -k MAC
r -t 0.308040851 -s 4 -d -1 -p RTS -e 44 -c 2 -a 0 -i 0 -k MAC
+ -t 0.308050851 -s 4 -d -1 -p CTS -e 38 -c 2 -a 0 -i 0 -k MAC 
- -t 0.308050851 -s 4 -d -1 -p CTS -e 38 -c 2 -a 0 -i 0 -k MAC
h -t 0.308050851 -s 4 -d -1 -p CTS -e 38 -c 2 -a 0 -i 0 -k MAC
r -t 0.308355684 -s 5 -d -1 -p CTS -e 38 -c 2 -a 0 -i 0 -k MAC
+ -t 0.308365684 -s 5 -d 4 -p AODV -e 102 -c 2 -a 0 -i 0 -k MAC 
- -t 0.308365684 -s 5 -d 4 -p AODV -e 102 -c 2 -a 0 -i 0 -k MAC
h -t 0.308365684 -s 5 -d 4 -p AODV -e 102 -c 2 -a 0 -i 0 -k MAC
r -t 0.309182518 -s 4 -d 4 -p AODV -e 44 -c 2 -a 0 -i 0 -k MAC
+ -t 0.309192518 -s 4 -d -1 -p ACK -e 38 -c 2 -a 0 -i 0 -k MAC 
- -t 0.309192518 -s 4 -d -1 -p ACK -e 38 -c 2 -a 0 -i 0 -k MAC
h -t 0.309192518 -s 4 -d -1 -p ACK -e 38 -c 2 -a 0 -i 0 -k MAC
+ -t 0.309207518 -s 4 -d 0 -p AODV -e 44 -c 2 -a 0 -i 0 -k RTR 
- -t 0.309207518 -s 4 -d 0 -p AODV -e 44 -c 2 -a 0 -i 0 -k RTR
h -t 0.309207518 -s 4 -d 0 -p AODV -e 44 -c 2 -a 0 -i 0 -k RTR
r -t 0.309497351 -s 5 -d -1 -p ACK -e 38 -c 2 -a 0 -i 0 -k MAC
+ -t 0.309756627 -s 3 -d -1 -p AODV -e 106 -c 2 -a 0 -i 0 -k MAC 
- -t 0.309756627 -s 3 -d -1 -p AODV -e 106 -c 2 -a 0 -i 0 -k MAC
h -t 0.309756627 -s 3 -d -1 -p AODV -e 106 -c 2 -a 0 -i 0 -k MAC
r -t 0.310604777 -s 1 -d -1 -p AODV -e 48 -c 2 -a 0 -i 0 -k MAC
r -t 0.310604794 -s 4 -d -1 -p AODV -e 48 -c 2 -a 0 -i 0 -k MAC
r -t 0.310604794 -s 2 -d -1 -p AODV -e 48 -c 2 -a 0 -i 0 -k MAC
r -t 0.310629777 -s 1 -d -1 -p AODV -e 48 -c 2 -a 0 -i 0 -k RTR
r -t 0.310629794 -s 4 -d -1 -p AODV -e 48 -c 2 -a 0 -i 0 -k RTR
r -t 0.310629794 -s 2 -d -1 -p AODV -e 48 -c 2 -a 0 -i 0 -k RTR
+ -t 0.310794794 -s 4 -d -1 -p ARP -e 86 -c 2 -a 0 -i 0 -k MAC 
- -t 0.310794794 -s 4 -d -1 -p ARP -e 86 -c 2 -a 0 -i 0 -k MAC
h -t 0.310794794 -s 4 -d -1 -p ARP -e 86 -c 2 -a 0 -i 0 -k MAC
r -t 0.311482810 -s 1 -d -1 -p ARP -e 28 -c 2 -a 0 -i 0 -k MAC
r -t 0.311482960 -s 3 -d -1 -p ARP -e 28 -c 2 -a 0 -i 0 -k MAC
r -t 0.311483127 -s 2 -d -1 -p ARP -e 28 -c 2 -a 0 -i 0 -k MAC
r -t 0.311483627 -s 0 -d -1 -p ARP -e 28 -c 2 -a 0 -i 0 -k MAC
r -t 0.311483627 -s 5 -d -1 -p ARP -e 28 -c 2 -a 0 -i 0 -k MAC
+ -t 0.311593127 -s 2 -d -1 -p AODV -e 106 -c 2 -a 0 -i 0 -k MAC 
- -t 0.311593127 -s 2 -d -1 -p AODV -e 106 -c 2 -a 0 -i 0 -k MAC
h -t 0.311593127 -s 2 -d -1 -p AODV -e 106 -c 2 -a 0 -i 0 -k MAC
r -t 0.312441294 -s 3 -d -1 -p AODV -e 48 -c 2 -a 0 -i 0 -k MAC
r -t 0.312441444 -s 1 -d -1 -p AODV -e 48 -c 2 -a 0 -i 0 -k MAC
r -t 0.312441460 -s 4 -d -1 -p AODV -e 48 -c 2 -a 0 -i 0 -k MAC
r -t 0.312466294 -s 3 -d -1 -p AODV -e 48 -c 2 -a 0 -i 0 -k RTR
r -t 0.312466444 -s 1 -d -1 -p AODV -e 48 -c 2 -a 0 -i 0 -k RTR
r -t 0.312466460 -s 4 -d -1 -p AODV -e 48 -c 2 -a 0 -i 0 -k RTR
+ -t 0.313036194 -s 0 -d -1 -p RTS -e 44 -c 2 -a 0 -i 0 -k MAC 
- -t 0.313036194 -s 0 -d -1 -p RTS -e 44 -c 2 -a 0 -i 0 -k MAC
h -t 0.313036194 -s 0 -d -1 -p RTS -e 44 -c 2 -a 0 -i 0 -k MAC
+ -t 0.313126103 -s 1 -d -1 -p AODV -e 48 -c 2 -a 0 -i 0 -k RTR 
- -t 0.313126103 -s 1 -d -1 -p AODV -e 48 -c 2 -a 0 -i 0 -k RTR
h -t 0.313126103 -s 1 -d -1 -p AODV -e 48 -c 2 -a 0 -i 0 -k RTR
r -t 0.313389028 -s 4 -d -1 -p RTS -e 44 -c 2 -a 0 -i 0 -k MAC
+ -t 0.313399028 -s 4 -d -1 -p CTS -e 38 -c 2 -a 0 -i 0 -k MAC 
- -t 0.313399028 -s 4 -d -1 -p CTS -e 38 -c 2 -a 0 -i 0 -k MAC
h -t 0.313399028 -s 4 -d -1 -p CTS -e 38 -c 2 -a 0 -i 0 -k MAC
r -t 0.313703861 -s 0 -d -1 -p CTS -e 38 -c 2 -a 0 -i 0 -k MAC
+ -t 0.313713861 -s 0 -d -1 -p ARP -e 86 -c 2 -a 0 -i 0 -k MAC 
- -t 0.313713861 -s 0 -d -1 -p ARP -e 86 -c 2 -a 0 -i 0 -k MAC
h -t 0.313713861 -s 0 -d -1 -p ARP -e 86 -c 2 -a 0 -i 0 -k MAC
r -t 0.314402694 -s 4 -d -1 -p ARP -e 28 -c 2 -a 0 -i 0 -k MAC
+ -t 0.314412694 -s 4 -d -1 -p ACK -e 38 -c 2 -a 0 -i 0 -k MAC 
- -t 0.314412694 -s 4 -d -1 -p ACK -e 38 -c 2 -a 0 -i 0 -k MAC
h -t 0.314412694 -s 4 -d -1 -p ACK -e 38 -c 2 -a 0 -i 0 -k MAC
r -t 0.314717528 -s 0 -d -1 -p ACK -e 38 -c 2 -a 0 -i 0 -k MAC
+ -t 0.315056704 -s 1 -d -1 -p AODV -e 106 -c 2 -a 0 -i 0 -k MAC 
- -t 0.315056704 -s 1 -d -1 -p AODV -e 106 -c 2 -a 0 -i 0 -k MAC
h -t 0.315056704 -s 1 -d -1 -p AODV -e 106 -c 2 -a 0 -i 0 -k MAC
r -t 0.315904721 -s 4 -d -1 -p AODV -e 48 -c 2 -a 0 -i 0 -k MAC
r -t 0.315904854 -s 3 -d -1 -p AODV -e 48 -c 2 -a 0 -i 0 -k MAC
r -t 0.315905021 -s 2 -d -1 -p AODV -e 48 -c 2 -a 0 -i 0 -k MAC
r -t 0.315929721 -s 4 -d -1 -p AODV -e 48 -c 2 -a 0 -i 0 -k RTR
r -t 0.315929854 -s 3 -d -1 -p AODV -e 48 -c 2 -a 0 -i 0 -k RTR
r -t 0.315930021 -s 2 -d -1 -p AODV -e 48 -c 2 -a 0 -i 0 -k RTR
+ -t 0.316114721 -s 4 -d -1 -p RTS -e 44 -c 2 -a 0 -i 0 -k MAC 
- -t 0.316114721 -s 4 -d -1 -p RTS -e 44 -c 2 -a 0 -i 0 -k MAC
h -t 0.316114721 -s 4 -d -1 -p RTS -e 44 -c 2 -a 0 -i 0 -k MAC
r -t 0.316467554 -s 0 -d -1 -p RTS -e 44 -c 2 -a 0 -i 0 -k MAC
+ -t 0.316477554 -s 0 -d -1 -p CTS -e 38 -c 2 -a 0 -i 0 -k MAC 
- -t 0.316477554 -s 0 -d -1 -p CTS -e 38 -c 2 -a 0 -i 0 -k MAC
h -t 0.316477554 -s 0 -d -1 -p CTS -e 38 -c 2 -a 0 -i 0 -k MAC
r -t 0.316782388 -s 4 -d -1 -p CTS -e 38 -c 2 -a 0 -i 0 -k MAC
+ -t 0.316792388 -s 4 -d 0 -p AODV -e 102 -c 2 -a 0 -i 0 -k MAC 
- -t 0.316792388 -s 4 -d 0 -p AODV -e 102 -c 2 -a 0 -i 0 -k MAC
h -t 0.316792388 -s 4 -d 0 -p AODV -e 102 -c 2 -a 0 -i 0 -k MAC
r -t 0.317609221 -s 0 -d 0 -p AODV -e 44 -c 2 -a 0 -i 0 -k MAC
+ -t 0.317619221 -s 0 -d -1 -p ACK -e 38 -c 2 -a 0 -i 0 -k MAC 
- -t 0.317619221 -s 0 -d -1 -p ACK -e 38 -c 2 -a 0 -i 0 -k MAC
h -t 0.317619221 -s 0 -d -1 -p ACK -e 38 -c 2 -a 0 -i 0 -k MAC
+ -t 0.317634221 -s 0 -d 4 -p cbr -e 3020 -c 2 -a 0 -i 0 -k RTR 
- -t 0.317634221 -s 0 -d 4 -p cbr -e 3020 -c 2 -a 0 -i 0 -k RTR
h -t 0.317634221 -s 0 -d 4 -p cbr -e 3020 -c 2 -a 0 -i 0 -k RTR
r -t 0.317924054 -s 4 -d -1 -p ACK -e 38 -c 2 -a 0 -i 0 -k MAC
+ -t 0.318373221 -s 0 -d -1 -p RTS -e 44 -c 2 -a 0 -i 0 -k MAC 
- -t 0.318373221 -s 0 -d -1 -p RTS -e 44 -c 2 -a 0 -i 0 -k MAC
h -t 0.318373221 -s 0 -d -1 -p RTS -e 44 -c 2 -a 0 -i 0 -k MAC
r -t 0.318726054 -s 4 -d -1 -p RTS -e 44 -c 2 -a 0 -i 0 -k MAC
+ -t 0.318736054 -s 4 -d -1 -p CTS -e 38 -c 2 -a 0 -i 0 -k MAC 
- -t 0.318736054 -s 4 -d -1 -p CTS -e 38 -c 2 -a 0 -i 0 -k MAC
h -t 0.318736054 -s 4 -d -1 -p CTS -e 38 -c 2 -a 0 -i 0 -k MAC
r -t 0.319040888 -s 0 -d -1 -p CTS -e 38 -c 2 -a 0 -i 0 -k MAC
+ -t 0.319050888 -s 0 -d 4 -p cbr -e 3078 -c 2 -a 0 -i 0 -k MAC 
- -t 0.319050888 -s 0 -d 4 -p cbr -e 3078 -c 2 -a 0 -i 0 -k MAC
h -t 0.319050888 -s 0 -d 4 -p cbr -e 3078 -c 2 -a 0 -i 0 -k MAC
+ -t 0.330000000 -s 0 -d -1 -p cbr -e 3000 -c 2 -a 0 -i 1 -k AGT 
- -t 0.330000000 -s 0 -d -1 -p cbr -e 3000 -c 2 -a 0 -i 1 -k AGT
h -t 0.330000000 -s 0 -d -1 -p cbr -e 3000 -c 2 -a 0 -i 1 -k AGT
+ -t 0.330000000 -s 0 -d 4 -p cbr -e 3020 -c 2 -a 0 -i 1 -k RTR 
- -t 0.330000000 -s 0 -d 4 -p cbr -e 3020 -c 2 -a 0 -i 1 -k RTR
h -t 0.330000000 -s 0 -d 4 -p cbr -e 3020 -c 2 -a 0 -i 1 -k RTR
r -t 0.343675721 -s 4 -d 4 -p cbr -e 3020 -c 2 -a 0 -i 0 -k MAC
+ -t 0.343685721 -s 4 -d -1 -p ACK -e 38 -c 2 -a 0 -i 0 -k MAC 
- -t 0.343685721 -s 4 -d -1 -p ACK -e 38 -c 2 -a 0 -i 0 -k MAC
h -t 0.343685721 -s 4 -d -1 -p ACK -e 38 -c 2 -a 0 -i 0 -k MAC
+ -t 0.343700721 -s 4 -d 5 -p cbr -e 3020 -c 2 -a 0 -i 0 -k RTR 
- -t 0.343700721 -s 4 -d 5 -p cbr -e 3020 -c 2 -a 0 -i 0 -k RTR
h -t 0.343700721 -s 4 -d 5 -p cbr -e 3020 -c 2 -a 0 -i 0 -k RTR
r -t 0.343990554 -s 0 -d -1 -p ACK -e 38 -c 2 -a 0 -i 0 -k MAC
+ -t 0.344179721 -s 4 -d -1 -p RTS -e 44 -c 2 -a 0 -i 0 -k MAC 
- -t 0.344179721 -s 4 -d -1 -p RTS -e 44 -c 2 -a 0 -i 0 -k MAC
h -t 0.344179721 -s 4 -d -1 -p RTS -e 44 -c 2 -a 0 -i 0 -k MAC
r -t 0.344532554 -s 5 -d -1 -p RTS -e 44 -c 2 -a 0 -i 0 -k MAC
+ -t 0.344542554 -s 5 -d -1 -p CTS -e 38 -c 2 -a 0 -i 0 -k MAC 
- -t 0.344542554 -s 5 -d -1 -p CTS -e 38 -c 2 -a 0 -i 0 -k MAC
h -t 0.344542554 -s 5 -d -1 -p CTS -e 38 -c 2 -a 0 -i 0 -k MAC
r -t 0.344847388 -s 4 -d -1 -p CTS -e 38 -c 2 -a 0 -i 0 -k MAC
+ -t 0.344857388 -s 4 -d 5 -p cbr -e 3078 -c 2 -a 0 -i 0 -k MAC 
- -t 0.344857388 -s 4 -d 5 -p cbr -e 3078 -c 2 -a 0 -i 0 -k MAC
h -t 0.344857388 -s 4 -d 5 -p cbr -e 3078 -c 2 -a 0 -i 0 -k MAC
+ -t 0.360000000 -s 0 -d -1 -p cbr -e 3000 -c 2 -a 0 -i 2 -k AGT 
- -t 0.360000000 -s 0 -d -1 -p cbr -e 3000 -c 2 -a 0 -i 2 -k AGT
h -t 0.360000000 -s 0 -d -1 -p cbr -e 3000 -c 2 -a 0 -i 2 -k AGT
+ -t 0.360000000 -s 0 -d 4 -p cbr -e 3020 -c 2 -a 0 -i 2 -k RTR 
- -t 0.360000000 -s 0 -d 4 -p cbr -e 3020 -c 2 -a 0 -i 2 -k RTR
h -t 0.360000000 -s 0 -d 4 -p cbr -e 3020 -c 2 -a 0 -i 2 -k RTR
r -t 0.369482221 -s 5 -d 5 -p cbr -e 3020 -c 2 -a 0 -i 0 -k MAC
+ -t 0.369492221 -s 5 -d -1 -p ACK -e 38 -c 2 -a 0 -i 0 -k MAC 
- -t 0.369492221 -s 5 -d -1 -p ACK -e 38 -c 2 -a 0 -i 0 -k MAC
h -t 0.369492221 -s 5 -d -1 -p ACK -e 38 -c 2 -a 0 -i 0 -k MAC
r -t 0.369507221 -s 5 -d 5 -p cbr -e 3020 -c 2 -a 0 -i 0 -k AGT
r -t 0.369797054 -s 4 -d -1 -p ACK -e 38 -c 2 -a 0 -i 0 -k MAC
+ -t 0.370431554 -s 0 -d -1 -p RTS -e 44 -c 2 -a 0 -i 0 -k MAC 
- -t 0.370431554 -s 0 -d -1 -p RTS -e 44 -c 2 -a 0 -i 0 -k MAC
h -t 0.370431554 -s 0 -d -1 -p RTS -e 44 -c 2 -a 0 -i 0 -k MAC
r -t 0.370784388 -s 4 -d -1 -p RTS -e 44 -c 2 -a 0 -i 0 -k MAC
+ -t 0.370794388 -s 4 -d -1 -p CTS -e 38 -c 2 -a 0 -i 0 -k MAC 
- -t 0.370794388 -s 4 -d -1 -p CTS -e 38 -c 2 -a 0 -i 0 -k MAC
h -t 0.370794388 -s 4 -d -1 -p CTS -e 38 -c 2 -a 0 -i 0 -k MAC
r -t 0.371099221 -s 0 -d -1 -p CTS -e 38 -c 2 -a 0 -i 0 -k MAC
+ -t 0.371109221 -s 0 -d 4 -p cbr -e 3078 -c 2 -a 0 -i 1 -k MAC 
- -t 0.371109221 -s 0 -d 4 -p cbr -e 3078 -c 2 -a 0 -i 1 -k MAC
h -t 0.371109221 -s 0 -d 4 -p cbr -e 3078 -c 2 -a 0 -i 1 -k MAC
+ -t 0.390000000 -s 0 -d -1 -p cbr -e 3000 -c 2 -a 0 -i 3 -k AGT 
- -t 0.390000000 -s 0 -d -1 -p cbr -e 3000 -c 2 -a 0 -i 3 -k AGT
h -t 0.390000000 -s 0 -d -1 -p cbr -e 3000 -c 2 -a 0 -i 3 -k AGT
+ -t 0.390000000 -s 0 -d 4 -p cbr -e 3020 -c 2 -a 0 -i 3 -k RTR 
- -t 0.390000000 -s 0 -d 4 -p cbr -e 3020 -c 2 -a 0 -i 3 -k RTR
h -t 0.390000000 -s 0 -d 4 -p cbr -e 3020 -c 2 -a 0 -i 3 -k RTR
r -t 0.395734054 -s 4 -d 4 -p cbr -e 3020 -c 2 -a 0 -i 1 -k MAC
+ -t 0.395744054 -s 4 -d -1 -p ACK -e 38 -c 2 -a 0 -i 0 -k MAC 
- -t 0.395744054 -s 4 -d -1 -p ACK -e 38 -c 2 -a 0 -i 0 -k MAC
h -t 0.395744054 -s 4 -d -1 -p ACK -e 38 -c 2 -a 0 -i 0 -k MAC
+ -t 0.395759054 -s 4 -d 5 -p cbr -e 3020 -c 2 -a 0 -i 1 -k RTR 
- -t 0.395759054 -s 4 -d 5 -p cbr -e 3020 -c 2 -a 0 -i 1 -k RTR
h -t 0.395759054 -s 4 -d 5 -p cbr -e 3020 -c 2 -a 0 -i 1 -k RTR
r -t 0.396048888 -s 0 -d -1 -p ACK -e 38 -c 2 -a 0 -i 0 -k MAC
+ -t 0.396398054 -s 4 -d -1 -p RTS -e 44 -c 2 -a 0 -i 0 -k MAC 
- -t 0.396398054 -s 4 -d -1 -p RTS -e 44 -c 2 -a 0 -i 0 -k MAC
h -t 0.396398054 -s 4 -d -1 -p RTS -e 44 -c 2 -a 0 -i 0 -k MAC
r -t 0.396750888 -s 5 -d -1 -p RTS -e 44 -c 2 -a 0 -i 0 -k MAC
+ -t 0.396760888 -s 5 -d -1 -p CTS -e 38 -c 2 -a 0 -i 0 -k MAC 
- -t 0.396760888 -s 5 -d -1 -p CTS -e 38 -c 2 -a 0 -i 0 -k MAC
h -t 0.396760888 -s 5 -d -1 -p CTS -e 38 -c 2 -a 0 -i 0 -k MAC
r -t 0.397065721 -s 4 -d -1 -p CTS -e 38 -c 2 -a 0 -i 0 -k MAC
+ -t 0.397075721 -s 4 -d 5 -p cbr -e 3078 -c 2 -a 0 -i 1 -k MAC 
- -t 0.397075721 -s 4 -d 5 -p cbr -e 3078 -c 2 -a 0 -i 1 -k MAC
h -t 0.397075721 -s 4 -d 5 -p cbr -e 3078 -c 2 -a 0 -i 1 -k MAC
+ -t 0.420000000 -s 0 -d -1 -p cbr -e 3000 -c 2 -a 0 -i 4 -k AGT 
- -t 0.420000000 -s 0 -d -1 -p cbr -e 3000 -c 2 -a 0 -i 4 -k AGT
h -t 0.420000000 -s 0 -d -1 -p cbr -e 3000 -c 2 -a 0 -i 4 -k AGT
+ -t 0.420000000 -s 0 -d 4 -p cbr -e 3020 -c 2 -a 0 -i 4 -k RTR 
- -t 0.420000000 -s 0 -d 4 -p cbr -e 3020 -c 2 -a 0 -i 4 -k RTR
h -t 0.420000000 -s 0 -d 4 -p cbr -e 3020 -c 2 -a 0 -i 4 -k RTR
r -t 0.421700554 -s 5 -d 5 -p cbr -e 3020 -c 2 -a 0 -i 1 -k MAC
+ -t 0.421710554 -s 5 -d -1 -p ACK -e 38 -c 2 -a 0 -i 0 -k MAC 
- -t 0.421710554 -s 5 -d -1 -p ACK -e 38 -c 2 -a 0 -i 0 -k MAC
h -t 0.421710554 -s 5 -d -1 -p ACK -e 38 -c 2 -a 0 -i 0 -k MAC
r -t 0.421725554 -s 5 -d 5 -p cbr -e 3020 -c 2 -a 0 -i 1 -k AGT
r -t 0.422015388 -s 4 -d -1 -p ACK -e 38 -c 2 -a 0 -i 0 -k MAC
+ -t 0.422489888 -s 0 -d -1 -p RTS -e 44 -c 2 -a 0 -i 0 -k MAC 
- -t 0.422489888 -s 0 -d -1 -p RTS -e 44 -c 2 -a 0 -i 0 -k MAC
h -t 0.422489888 -s 0 -d -1 -p RTS -e 44 -c 2 -a 0 -i 0 -k MAC
r -t 0.422842721 -s 4 -d -1 -p RTS -e 44 -c 2 -a 0 -i 0 -k MAC
+ -t 0.422852721 -s 4 -d -1 -p CTS -e 38 -c 2 -a 0 -i 0 -k MAC 
- -t 0.422852721 -s 4 -d -1 -p CTS -e 38 -c 2 -a 0 -i 0 -k MAC
h -t 0.422852721 -s 4 -d -1 -p CTS -e 38 -c 2 -a 0 -i 0 -k MAC
r -t 0.423157554 -s 0 -d -1 -p CTS -e 38 -c 2 -a 0 -i 0 -k MAC
+ -t 0.423167554 -s 0 -d 4 -p cbr -e 3078 -c 2 -a 0 -i 2 -k MAC 
- -t 0.423167554 -s 0 -d 4 -p cbr -e 3078 -c 2 -a 0 -i 2 -k MAC
h -t 0.423167554 -s 0 -d 4 -p cbr -e 3078 -c 2 -a 0 -i 2 -k MAC
r -t 0.447792388 -s 4 -d 4 -p cbr -e 3020 -c 2 -a 0 -i 2 -k MAC
+ -t 0.447802388 -s 4 -d -1 -p ACK -e 38 -c 2 -a 0 -i 0 -k MAC 
- -t 0.447802388 -s 4 -d -1 -p ACK -e 38 -c 2 -a 0 -i 0 -k MAC
h -t 0.447802388 -s 4 -d -1 -p ACK -e 38 -c 2 -a 0 -i 0 -k MAC
+ -t 0.447817388 -s 4 -d 5 -p cbr -e 3020 -c 2 -a 0 -i 2 -k RTR 
- -t 0.447817388 -s 4 -d 5 -p cbr -e 3020 -c 2 -a 0 -i 2 -k RTR
h -t 0.447817388 -s 4 -d 5 -p cbr -e 3020 -c 2 -a 0 -i 2 -k RTR
r -t 0.448107221 -s 0 -d -1 -p ACK -e 38 -c 2 -a 0 -i 0 -k MAC
+ -t 0.448236388 -s 4 -d -1 -p RTS -e 44 -c 2 -a 0 -i 0 -k MAC 
- -t 0.448236388 -s 4 -d -1 -p RTS -e 44 -c 2 -a 0 -i 0 -k MAC
h -t 0.448236388 -s 4 -d -1 -p RTS -e 44 -c 2 -a 0 -i 0 -k MAC
r -t 0.448589221 -s 5 -d -1 -p RTS -e 44 -c 2 -a 0 -i 0 -k MAC
+ -t 0.448599221 -s 5 -d -1 -p CTS -e 38 -c 2 -a 0 -i 0 -k MAC 
- -t 0.448599221 -s 5 -d -1 -p CTS -e 38 -c 2 -a 0 -i 0 -k MAC
h -t 0.448599221 -s 5 -d -1 -p CTS -e 38 -c 2 -a 0 -i 0 -k MAC
r -t 0.448904054 -s 4 -d -1 -p CTS -e 38 -c 2 -a 0 -i 0 -k MAC
+ -t 0.448914054 -s 4 -d 5 -p cbr -e 3078 -c 2 -a 0 -i 2 -k MAC 
- -t 0.448914054 -s 4 -d 5 -p cbr -e 3078 -c 2 -a 0 -i 2 -k MAC
h -t 0.448914054 -s 4 -d 5 -p cbr -e 3078 -c 2 -a 0 -i 2 -k MAC
+ -t 0.450000000 -s 0 -d -1 -p cbr -e 3000 -c 2 -a 0 -i 5 -k AGT 
- -t 0.450000000 -s 0 -d -1 -p cbr -e 3000 -c 2 -a 0 -i 5 -k AGT
h -t 0.450000000 -s 0 -d -1 -p cbr -e 3000 -c 2 -a 0 -i 5 -k AGT
+ -t 0.450000000 -s 0 -d 4 -p cbr -e 3020 -c 2 -a 0 -i 5 -k RTR 
- -t 0.450000000 -s 0 -d 4 -p cbr -e 3020 -c 2 -a 0 -i 5 -k RTR
h -t 0.450000000 -s 0 -d 4 -p cbr -e 3020 -c 2 -a 0 -i 5 -k RTR
r -t 0.473538888 -s 5 -d 5 -p cbr -e 3020 -c 2 -a 0 -i 2 -k MAC
+ -t 0.473548888 -s 5 -d -1 -p ACK -e 38 -c 2 -a 0 -i 0 -k MAC 
- -t 0.473548888 -s 5 -d -1 -p ACK -e 38 -c 2 -a 0 -i 0 -k MAC
h -t 0.473548888 -s 5 -d -1 -p ACK -e 38 -c 2 -a 0 -i 0 -k MAC
r -t 0.473563888 -s 5 -d 5 -p cbr -e 3020 -c 2 -a 0 -i 2 -k AGT
r -t 0.473853721 -s 4 -d -1 -p ACK -e 38 -c 2 -a 0 -i 0 -k MAC
+ -t 0.474468221 -s 0 -d -1 -p RTS -e 44 -c 2 -a 0 -i 0 -k MAC 
- -t 0.474468221 -s 0 -d -1 -p RTS -e 44 -c 2 -a 0 -i 0 -k MAC
h -t 0.474468221 -s 0 -d -1 -p RTS -e 44 -c 2 -a 0 -i 0 -k MAC
r -t 0.474821054 -s 4 -d -1 -p RTS -e 44 -c 2 -a 0 -i 0 -k MAC
+ -t 0.474831054 -s 4 -d -1 -p CTS -e 38 -c 2 -a 0 -i 0 -k MAC 
- -t 0.474831054 -s 4 -d -1 -p CTS -e 38 -c 2 -a 0 -i 0 -k MAC
h -t 0.474831054 -s 4 -d -1 -p CTS -e 38 -c 2 -a 0 -i 0 -k MAC
r -t 0.475135888 -s 0 -d -1 -p CTS -e 38 -c 2 -a 0 -i 0 -k MAC
+ -t 0.475145888 -s 0 -d 4 -p cbr -e 3078 -c 2 -a 0 -i 3 -k MAC 
- -t 0.475145888 -s 0 -d 4 -p cbr -e 3078 -c 2 -a 0 -i 3 -k MAC
h -t 0.475145888 -s 0 -d 4 -p cbr -e 3078 -c 2 -a 0 -i 3 -k MAC
+ -t 0.480000000 -s 0 -d -1 -p cbr -e 3000 -c 2 -a 0 -i 6 -k AGT 
- -t 0.480000000 -s 0 -d -1 -p cbr -e 3000 -c 2 -a 0 -i 6 -k AGT
h -t 0.480000000 -s 0 -d -1 -p cbr -e 3000 -c 2 -a 0 -i 6 -k AGT
+ -t 0.480000000 -s 0 -d 4 -p cbr -e 3020 -c 2 -a 0 -i 6 -k RTR 
- -t 0.480000000 -s 0 -d 4 -p cbr -e 3020 -c 2 -a 0 -i 6 -k RTR
h -t 0.480000000 -s 0 -d 4 -p cbr -e 3020 -c 2 -a 0 -i 6 -k RTR
r -t 0.499770721 -s 4 -d 4 -p cbr -e 3020 -c 2 -a 0 -i 3 -k MAC
+ -t 0.499780721 -s 4 -d -1 -p ACK -e 38 -c 2 -a 0 -i 0 -k MAC 
- -t 0.499780721 -s 4 -d -1 -p ACK -e 38 -c 2 -a 0 -i 0 -k MAC
h -t 0.499780721 -s 4 -d -1 -p ACK -e 38 -c 2 -a 0 -i 0 -k MAC
+ -t 0.499795721 -s 4 -d 5 -p cbr -e 3020 -c 2 -a 0 -i 3 -k RTR 
- -t 0.499795721 -s 4 -d 5 -p cbr -e 3020 -c 2 -a 0 -i 3 -k RTR
h -t 0.499795721 -s 4 -d 5 -p cbr -e 3020 -c 2 -a 0 -i 3 -k RTR
r -t 0.500085554 -s 0 -d -1 -p ACK -e 38 -c 2 -a 0 -i 0 -k MAC
+ -t 0.500234721 -s 4 -d -1 -p RTS -e 44 -c 2 -a 0 -i 0 -k MAC 
- -t 0.500234721 -s 4 -d -1 -p RTS -e 44 -c 2 -a 0 -i 0 -k MAC
h -t 0.500234721 -s 4 -d -1 -p RTS -e 44 -c 2 -a 0 -i 0 -k MAC
r -t 0.500587554 -s 5 -d -1 -p RTS -e 44 -c 2 -a 0 -i 0 -k MAC
+ -t 0.500597554 -s 5 -d -1 -p CTS -e 38 -c 2 -a 0 -i 0 -k MAC 
- -t 0.500597554 -s 5 -d -1 -p CTS -e 38 -c 2 -a 0 -i 0 -k MAC
h -t 0.500597554 -s 5 -d -1 -p CTS -e 38 -c 2 -a 0 -i 0 -k MAC
r -t 0.500902388 -s 4 -d -1 -p CTS -e 38 -c 2 -a 0 -i 0 -k MAC
+ -t 0.500912388 -s 4 -d 5 -p cbr -e 3078 -c 2 -a 0 -i 3 -k MAC 
- -t 0.500912388 -s 4 -d 5 -p cbr -e 3078 -c 2 -a 0 -i 3 -k MAC
h -t 0.500912388 -s 4 -d 5 -p cbr -e 3078 -c 2 -a 0 -i 3 -k MAC
+ -t 0.510000000 -s 0 -d -1 -p cbr -e 3000 -c 2 -a 0 -i 7 -k AGT 
- -t 0.510000000 -s 0 -d -1 -p cbr -e 3000 -c 2 -a 0 -i 7 -k AGT
h -t 0.510000000 -s 0 -d -1 -p cbr -e 3000 -c 2 -a 0 -i 7 -k AGT
+ -t 0.510000000 -s 0 -d 4 -p cbr -e 3020 -c 2 -a 0 -i 7 -k RTR 
- -t 0.510000000 -s 0 -d 4 -p cbr -e 3020 -c 2 -a 0 -i 7 -k RTR
h -t 0.510000000 -s 0 -d 4 -p cbr -e 3020 -c 2 -a 0 -i 7 -k RTR
r -t 0.525537221 -s 5 -d 5 -p cbr -e 3020 -c 2 -a 0 -i 3 -k MAC
+ -t 0.525547221 -s 5 -d -1 -p ACK -e 38 -c 2 -a 0 -i 0 -k MAC 
- -t 0.525547221 -s 5 -d -1 -p ACK -e 38 -c 2 -a 0 -i 0 -k MAC
h -t 0.525547221 -s 5 -d -1 -p ACK -e 38 -c 2 -a 0 -i 0 -k MAC
r -t 0.525562221 -s 5 -d 5 -p cbr -e 3020 -c 2 -a 0 -i 3 -k AGT
r -t 0.525852054 -s 4 -d -1 -p ACK -e 38 -c 2 -a 0 -i 0 -k MAC
+ -t 0.526706554 -s 0 -d -1 -p RTS -e 44 -c 2 -a 0 -i 0 -k MAC 
- -t 0.526706554 -s 0 -d -1 -p RTS -e 44 -c 2 -a 0 -i 0 -k MAC
h -t 0.526706554 -s 0 -d -1 -p RTS -e 44 -c 2 -a 0 -i 0 -k MAC
r -t 0.527059388 -s 4 -d -1 -p RTS -e 44 -c 2 -a 0 -i 0 -k MAC
+ -t 0.527069388 -s 4 -d -1 -p CTS -e 38 -c 2 -a 0 -i 0 -k MAC 
- -t 0.527069388 -s 4 -d -1 -p CTS -e 38 -c 2 -a 0 -i 0 -k MAC
h -t 0.527069388 -s 4 -d -1 -p CTS -e 38 -c 2 -a 0 -i 0 -k MAC
r -t 0.527374221 -s 0 -d -1 -p CTS -e 38 -c 2 -a 0 -i 0 -k MAC
+ -t 0.527384221 -s 0 -d 4 -p cbr -e 3078 -c 2 -a 0 -i 4 -k MAC 
- -t 0.527384221 -s 0 -d 4 -p cbr -e 3078 -c 2 -a 0 -i 4 -k MAC
h -t 0.527384221 -s 0 -d 4 -p cbr -e 3078 -c 2 -a 0 -i 4 -k MAC
+ -t 0.540000000 -s 0 -d -1 -p cbr -e 3000 -c 2 -a 0 -i 8 -k AGT 
- -t 0.540000000 -s 0 -d -1 -p cbr -e 3000 -c 2 -a 0 -i 8 -k AGT
h -t 0.540000000 -s 0 -d -1 -p cbr -e 3000 -c 2 -a 0 -i 8 -k AGT
+ -t 0.540000000 -s 0 -d 4 -p cbr -e 3020 -c 2 -a 0 -i 8 -k RTR 
- -t 0.540000000 -s 0 -d 4 -p cbr -e 3020 -c 2 -a 0 -i 8 -k RTR
h -t 0.540000000 -s 0 -d 4 -p cbr -e 3020 -c 2 -a 0 -i 8 -k RTR
r -t 0.552009054 -s 4 -d 4 -p cbr -e 3020 -c 2 -a 0 -i 4 -k MAC
+ -t 0.552019054 -s 4 -d -1 -p ACK -e 38 -c 2 -a 0 -i 0 -k MAC 
- -t 0.552019054 -s 4 -d -1 -p ACK -e 38 -c 2 -a 0 -i 0 -k MAC
h -t 0.552019054 -s 4 -d -1 -p ACK -e 38 -c 2 -a 0 -i 0 -k MAC
+ -t 0.552034054 -s 4 -d 5 -p cbr -e 3020 -c 2 -a 0 -i 4 -k RTR 
- -t 0.552034054 -s 4 -d 5 -p cbr -e 3020 -c 2 -a 0 -i 4 -k RTR
h -t 0.552034054 -s 4 -d 5 -p cbr -e 3020 -c 2 -a 0 -i 4 -k RTR
r -t 0.552323888 -s 0 -d -1 -p ACK -e 38 -c 2 -a 0 -i 0 -k MAC
+ -t 0.552573054 -s 4 -d -1 -p RTS -e 44 -c 2 -a 0 -i 0 -k MAC 
- -t 0.552573054 -s 4 -d -1 -p RTS -e 44 -c 2 -a 0 -i 0 -k MAC
h -t 0.552573054 -s 4 -d -1 -p RTS -e 44 -c 2 -a 0 -i 0 -k MAC
r -t 0.552925888 -s 5 -d -1 -p RTS -e 44 -c 2 -a 0 -i 0 -k MAC
+ -t 0.552935888 -s 5 -d -1 -p CTS -e 38 -c 2 -a 0 -i 0 -k MAC 
- -t 0.552935888 -s 5 -d -1 -p CTS -e 38 -c 2 -a 0 -i 0 -k MAC
h -t 0.552935888 -s 5 -d -1 -p CTS -e 38 -c 2 -a 0 -i 0 -k MAC
r -t 0.553240721 -s 4 -d -1 -p CTS -e 38 -c 2 -a 0 -i 0 -k MAC
+ -t 0.553250721 -s 4 -d 5 -p cbr -e 3078 -c 2 -a 0 -i 4 -k MAC 
- -t 0.553250721 -s 4 -d 5 -p cbr -e 3078 -c 2 -a 0 -i 4 -k MAC
h -t 0.553250721 -s 4 -d 5 -p cbr -e 3078 -c 2 -a 0 -i 4 -k MAC
+ -t 0.570000000 -s 0 -d -1 -p cbr -e 3000 -c 2 -a 0 -i 9 -k AGT 
- -t 0.570000000 -s 0 -d -1 -p cbr -e 3000 -c 2 -a 0 -i 9 -k AGT
h -t 0.570000000 -s 0 -d -1 -p cbr -e 3000 -c 2 -a 0 -i 9 -k AGT
+ -t 0.570000000 -s 0 -d 4 -p cbr -e 3020 -c 2 -a 0 -i 9 -k RTR 
- -t 0.570000000 -s 0 -d 4 -p cbr -e 3020 -c 2 -a 0 -i 9 -k RTR
h -t 0.570000000 -s 0 -d 4 -p cbr -e 3020 -c 2 -a 0 -i 9 -k RTR
r -t 0.577875554 -s 5 -d 5 -p cbr -e 3020 -c 2 -a 0 -i 4 -k MAC
+ -t 0.577885554 -s 5 -d -1 -p ACK -e 38 -c 2 -a 0 -i 0 -k MAC 
- -t 0.577885554 -s 5 -d -1 -p ACK -e 38 -c 2 -a 0 -i 0 -k MAC
h -t 0.577885554 -s 5 -d -1 -p ACK -e 38 -c 2 -a 0 -i 0 -k MAC
r -t 0.577900554 -s 5 -d 5 -p cbr -e 3020 -c 2 -a 0 -i 4 -k AGT
r -t 0.578190388 -s 4 -d -1 -p ACK -e 38 -c 2 -a 0 -i 0 -k MAC
+ -t 0.579004888 -s 0 -d -1 -p RTS -e 44 -c 2 -a 0 -i 0 -k MAC 
- -t 0.579004888 -s 0 -d -1 -p RTS -e 44 -c 2 -a 0 -i 0 -k MAC
h -t 0.579004888 -s 0 -d -1 -p RTS -e 44 -c 2 -a 0 -i 0 -k MAC
r -t 0.579357721 -s 4 -d -1 -p RTS -e 44 -c 2 -a 0 -i 0 -k MAC
+ -t 0.579367721 -s 4 -d -1 -p CTS -e 38 -c 2 -a 0 -i 0 -k MAC 
- -t 0.579367721 -s 4 -d -1 -p CTS -e 38 -c 2 -a 0 -i 0 -k MAC
h -t 0.579367721 -s 4 -d -1 -p CTS -e 38 -c 2 -a 0 -i 0 -k MAC
r -t 0.579672554 -s 0 -d -1 -p CTS -e 38 -c 2 -a 0 -i 0 -k MAC
+ -t 0.579682554 -s 0 -d 4 -p cbr -e 3078 -c 2 -a 0 -i 5 -k MAC 
- -t 0.579682554 -s 0 -d 4 -p cbr -e 3078 -c 2 -a 0 -i 5 -k MAC
h -t 0.579682554 -s 0 -d 4 -p cbr -e 3078 -c 2 -a 0 -i 5 -k MAC
+ -t 0.600000000 -s 0 -d -1 -p cbr -e 3000 -c 2 -a 0 -i 10 -k AGT 
- -t 0.600000000 -s 0 -d -1 -p cbr -e 3000 -c 2 -a 0 -i 10 -k AGT
h -t 0.600000000 -s 0 -d -1 -p cbr -e 3000 -c 2 -a 0 -i 10 -k AGT
+ -t 0.600000000 -s 0 -d 4 -p cbr -e 3020 -c 2 -a 0 -i 10 -k RTR 
- -t 0.600000000 -s 0 -d 4 -p cbr -e 3020 -c 2 -a 0 -i 10 -k RTR
h -t 0.600000000 -s 0 -d 4 -p cbr -e 3020 -c 2 -a 0 -i 10 -k RTR
r -t 0.604307388 -s 4 -d 4 -p cbr -e 3020 -c 2 -a 0 -i 5 -k MAC
+ -t 0.604317388 -s 4 -d -1 -p ACK -e 38 -c 2 -a 0 -i 0 -k MAC 
- -t 0.604317388 -s 4 -d -1 -p ACK -e 38 -c 2 -a 0 -i 0 -k MAC
h -t 0.604317388 -s 4 -d -1 -p ACK -e 38 -c 2 -a 0 -i 0 -k MAC
+ -t 0.604332388 -s 4 -d 5 -p cbr -e 3020 -c 2 -a 0 -i 5 -k RTR 
- -t 0.604332388 -s 4 -d 5 -p cbr -e 3020 -c 2 -a 0 -i 5 -k RTR
h -t 0.604332388 -s 4 -d 5 -p cbr -e 3020 -c 2 -a 0 -i 5 -k RTR
r -t 0.604622221 -s 0 -d -1 -p ACK -e 38 -c 2 -a 0 -i 0 -k MAC
+ -t 0.604791388 -s 4 -d -1 -p RTS -e 44 -c 2 -a 0 -i 0 -k MAC 
- -t 0.604791388 -s 4 -d -1 -p RTS -e 44 -c 2 -a 0 -i 0 -k MAC
h -t 0.604791388 -s 4 -d -1 -p RTS -e 44 -c 2 -a 0 -i 0 -k MAC
r -t 0.605144221 -s 5 -d -1 -p RTS -e 44 -c 2 -a 0 -i 0 -k MAC
+ -t 0.605154221 -s 5 -d -1 -p CTS -e 38 -c 2 -a 0 -i 0 -k MAC 
- -t 0.605154221 -s 5 -d -1 -p CTS -e 38 -c 2 -a 0 -i 0 -k MAC
h -t 0.605154221 -s 5 -d -1 -p CTS -e 38 -c 2 -a 0 -i 0 -k MAC
r -t 0.605459054 -s 4 -d -1 -p CTS -e 38 -c 2 -a 0 -i 0 -k MAC
+ -t 0.605469054 -s 4 -d 5 -p cbr -e 3078 -c 2 -a 0 -i 5 -k MAC 
- -t 0.605469054 -s 4 -d 5 -p cbr -e 3078 -c 2 -a 0 -i 5 -k MAC
h -t 0.605469054 -s 4 -d 5 -p cbr -e 3078 -c 2 -a 0 -i 5 -k MAC
+ -t 0.630000000 -s 0 -d -1 -p cbr -e 3000 -c 2 -a 0 -i 11 -k AGT 
- -t 0.630000000 -s 0 -d -1 -p cbr -e 3000 -c 2 -a 0 -i 11 -k AGT
h -t 0.630000000 -s 0 -d -1 -p cbr -e 3000 -c 2 -a 0 -i 11 -k AGT
+ -t 0.630000000 -s 0 -d 4 -p cbr -e 3020 -c 2 -a 0 -i 11 -k RTR 
- -t 0.630000000 -s 0 -d 4 -p cbr -e 3020 -c 2 -a 0 -i 11 -k RTR
h -t 0.630000000 -s 0 -d 4 -p cbr -e 3020 -c 2 -a 0 -i 11 -k RTR
r -t 0.630093888 -s 5 -d 5 -p cbr -e 3020 -c 2 -a 0 -i 5 -k MAC
+ -t 0.630103888 -s 5 -d -1 -p ACK -e 38 -c 2 -a 0 -i 0 -k MAC 
- -t 0.630103888 -s 5 -d -1 -p ACK -e 38 -c 2 -a 0 -i 0 -k MAC
h -t 0.630103888 -s 5 -d -1 -p ACK -e 38 -c 2 -a 0 -i 0 -k MAC
r -t 0.630118888 -s 5 -d 5 -p cbr -e 3020 -c 2 -a 0 -i 5 -k AGT
r -t 0.630408721 -s 4 -d -1 -p ACK -e 38 -c 2 -a 0 -i 0 -k MAC
+ -t 0.631043221 -s 0 -d -1 -p RTS -e 44 -c 2 -a 0 -i 0 -k MAC 
- -t 0.631043221 -s 0 -d -1 -p RTS -e 44 -c 2 -a 0 -i 0 -k MAC
h -t 0.631043221 -s 0 -d -1 -p RTS -e 44 -c 2 -a 0 -i 0 -k MAC
r -t 0.631396054 -s 4 -d -1 -p RTS -e 44 -c 2 -a 0 -i 0 -k MAC
+ -t 0.631406054 -s 4 -d -1 -p CTS -e 38 -c 2 -a 0 -i 0 -k MAC 
- -t 0.631406054 -s 4 -d -1 -p CTS -e 38 -c 2 -a 0 -i 0 -k MAC
h -t 0.631406054 -s 4 -d -1 -p CTS -e 38 -c 2 -a 0 -i 0 -k MAC
r -t 0.631710888 -s 0 -d -1 -p CTS -e 38 -c 2 -a 0 -i 0 -k MAC
+ -t 0.631720888 -s 0 -d 4 -p cbr -e 3078 -c 2 -a 0 -i 6 -k MAC 
- -t 0.631720888 -s 0 -d 4 -p cbr -e 3078 -c 2 -a 0 -i 6 -k MAC
h -t 0.631720888 -s 0 -d 4 -p cbr -e 3078 -c 2 -a 0 -i 6 -k MAC
r -t 0.656345721 -s 4 -d 4 -p cbr -e 3020 -c 2 -a 0 -i 6 -k MAC
+ -t 0.656355721 -s 4 -d -1 -p ACK -e 38 -c 2 -a 0 -i 0 -k MAC 
- -t 0.656355721 -s 4 -d -1 -p ACK -e 38 -c 2 -a 0 -i 0 -k MAC
h -t 0.656355721 -s 4 -d -1 -p ACK -e 38 -c 2 -a 0 -i 0 -k MAC
+ -t 0.656370721 -s 4 -d 5 -p cbr -e 3020 -c 2 -a 0 -i 6 -k RTR 
- -t 0.656370721 -s 4 -d 5 -p cbr -e 3020 -c 2 -a 0 -i 6 -k RTR
h -t 0.656370721 -s 4 -d 5 -p cbr -e 3020 -c 2 -a 0 -i 6 -k RTR
r -t 0.656660554 -s 0 -d -1 -p ACK -e 38 -c 2 -a 0 -i 0 -k MAC