M 0.00000 0 (0.00, 0.00, 0.00), (100.00, 100.00), 3000.00
M 0.00000 1 (0.00, 0.00, 0.00), (400.00, 400.00), 3000.00
M 0.00000 2 (0.00, 0.00, 0.00), (200.00, 300.00), 3000.00
M 0.00000 3 (0.00, 0.00, 0.00), (400.00, 300.00), 3000.00
M 0.00000 4 (0.00, 0.00, 0.00), (500.00, 300.00), 3000.00
M 0.00000 5 (0.00, 0.00, 0.00), (600.00, 400.00), 3000.00
s 0.500000000 _0_ AGT  --- 0 cbr 3000 [0 0 0 0] ------- [0:2 5:0 32 0] [0] 0 0
r 0.500000000 _0_ RTR  --- 0 cbr 3000 [0 0 0 0] ------- [0:2 5:0 32 0] [0] 0 0
s 0.500000000 _0_ AGT  --- 1 cbr 3000 [0 0 0 0] ------- [0:3 4:0 32 0] [0] 0 0
r 0.500000000 _0_ RTR  --- 1 cbr 3000 [0 0 0 0] ------- [0:3 4:0 32 0] [0] 0 0
s 0.500000000 _0_ RTR  --- 0 AODV 48 [0 0 0 0] ------- [0:255 -1:255 30 0] [0x2 1 1 [5 0] [0 4]] (REQUEST)
s 0.500000000 _0_ RTR  --- 0 AODV 48 [0 0 0 0] ------- [0:255 -1:255 30 0] [0x2 1 2 [4 0] [0 6]] (REQUEST)
s 0.500235000 _0_ MAC  --- 0 AODV 106 [0 ffffffff 0 800] ------- [0:255 -1:255 30 0] [0x2 1 1 [5 0] [0 4]] (REQUEST)
r 0.501083745 _2_ MAC  --- 0 AODV 48 [0 ffffffff 0 800] ------- [0:255 -1:255 30 0] [0x2 1 1 [5 0] [0 4]] (REQUEST)
r 0.501108745 _2_ RTR  --- 0 AODV 48 [0 ffffffff 0 800] ------- [0:255 -1:255 30 0] [0x2 1 1 [5 0] [0 4]] (REQUEST)
s 0.501333000 _0_ MAC  --- 0 AODV 106 [0 ffffffff 0 800] ------- [0:255 -1:255 30 0] [0x2 1 2 [4 0] [0 6]] (REQUEST)
r 0.502181745 _2_ MAC  --- 0 AODV 48 [0 ffffffff 0 800] ------- [0:255 -1:255 30 0] [0x2 1 2 [4 0] [0 6]] (REQUEST)
r 0.502206745 _2_ RTR  --- 0 AODV 48 [0 ffffffff 0 800] ------- [0:255 -1:255 30 0] [0x2 1 2 [4 0] [0 6]] (REQUEST)
s 0.503454763 _2_ RTR  --- 0 AODV 48 [0 ffffffff 0 800] ------- [2:255 -1:255 29 0] [0x2 2 1 [5 0] [0 4]] (REQUEST)
s 0.503769763 _2_ MAC  --- 0 AODV 106 [0 ffffffff 2 800] ------- [2:255 -1:255 29 0] [0x2 2 1 [5 0] [0 4]] (REQUEST)
r 0.504618430 _3_ MAC  --- 0 AODV 48 [0 ffffffff 2 800] ------- [2:255 -1:255 29 0] [0x2 2 1 [5 0] [0 4]] (REQUEST)
r 0.504618508 _0_ MAC  --- 0 AODV 48 [0 ffffffff 2 800] ------- [2:255 -1:255 29 0] [0x2 2 1 [5 0] [0 4]] (REQUEST)
r 0.504618508 _1_ MAC  --- 0 AODV 48 [0 ffffffff 2 800] ------- [2:255 -1:255 29 0] [0x2 2 1 [5 0] [0 4]] (REQUEST)
r 0.504643430 _3_ RTR  --- 0 AODV 48 [0 ffffffff 2 800] ------- [2:255 -1:255 29 0] [0x2 2 1 [5 0] [0 4]] (REQUEST)
r 0.504643508 _0_ RTR  --- 0 AODV 48 [0 ffffffff 2 800] ------- [2:255 -1:255 29 0] [0x2 2 1 [5 0] [0 4]] (REQUEST)
r 0.504643508 _1_ RTR  --- 0 AODV 48 [0 ffffffff 2 800] ------- [2:255 -1:255 29 0] [0x2 2 1 [5 0] [0 4]] (REQUEST)
s 0.505071375 _3_ RTR  --- 0 AODV 48 [0 ffffffff 2 800] ------- [3:255 -1:255 28 0] [0x2 3 1 [5 0] [0 4]] (REQUEST)
s 0.505297536 _2_ RTR  --- 0 AODV 48 [0 ffffffff 0 800] ------- [2:255 -1:255 29 0] [0x2 2 2 [4 0] [0 6]] (REQUEST)
s 0.505506375 _3_ MAC  --- 0 AODV 106 [0 ffffffff 3 800] ------- [3:255 -1:255 28 0] [0x2 3 1 [5 0] [0 4]] (REQUEST)
r 0.506354708 _1_ MAC  --- 0 AODV 48 [0 ffffffff 3 800] ------- [3:255 -1:255 28 0] [0x2 3 1 [5 0] [0 4]] (REQUEST)
r 0.506354708 _4_ MAC  --- 0 AODV 48 [0 ffffffff 3 800] ------- [3:255 -1:255 28 0] [0x2 3 1 [5 0] [0 4]] (REQUEST)
r 0.506355042 _2_ MAC  --- 0 AODV 48 [0 ffffffff 3 800] ------- [3:255 -1:255 28 0] [0x2 3 1 [5 0] [0 4]] (REQUEST)
r 0.506355120 _5_ MAC  --- 0 AODV 48 [0 ffffffff 3 800] ------- [3:255 -1:255 28 0] [0x2 3 1 [5 0] [0 4]] (REQUEST)
r 0.506379708 _1_ RTR  --- 0 AODV 48 [0 ffffffff 3 800] ------- [3:255 -1:255 28 0] [0x2 3 1 [5 0] [0 4]] (REQUEST)
r 0.506379708 _4_ RTR  --- 0 AODV 48 [0 ffffffff 3 800] ------- [3:255 -1:255 28 0] [0x2 3 1 [5 0] [0 4]] (REQUEST)
r 0.506380042 _2_ RTR  --- 0 AODV 48 [0 ffffffff 3 800] ------- [3:255 -1:255 28 0] [0x2 3 1 [5 0] [0 4]] (REQUEST)
r 0.506380120 _5_ RTR  --- 0 AODV 48 [0 ffffffff 3 800] ------- [3:255 -1:255 28 0] [0x2 3 1 [5 0] [0 4]] (REQUEST)
s 0.506380120 _5_ RTR  --- 0 AODV 44 [0 0 0 0] ------- [5:255 0:255 30 3] [0x4 1 [5 4] 10.000000] (REPLY)
s 0.506525042 _2_ MAC  --- 0 AODV 106 [0 ffffffff 2 800] ------- [2:255 -1:255 29 0] [0x2 2 2 [4 0] [0 6]] (REQUEST)
r 0.507373708 _3_ MAC  --- 0 AODV 48 [0 ffffffff 2 800] ------- [2:255 -1:255 29 0] [0x2 2 2 [4 0] [0 6]] (REQUEST)
r 0.507373787 _0_ MAC  --- 0 AODV 48 [0 ffffffff 2 800] ------- [2:255 -1:255 29 0] [0x2 2 2 [4 0] [0 6]] (REQUEST)
r 0.507373787 _1_ MAC  --- 0 AODV 48 [0 ffffffff 2 800] ------- [2:255 -1:255 29 0] [0x2 2 2 [4 0] [0 6]] (REQUEST)
r 0.507398708 _3_ RTR  --- 0 AODV 48 [0 ffffffff 2 800] ------- [2:255 -1:255 29 0] [0x2 2 2 [4 0] [0 6]] (REQUEST)
r 0.507398787 _0_ RTR  --- 0 AODV 48 [0 ffffffff 2 800] ------- [2:255 -1:255 29 0] [0x2 2 2 [4 0] [0 6]] (REQUEST)
r 0.507398787 _1_ RTR  --- 0 AODV 48 [0 ffffffff 2 800] ------- [2:255 -1:255 29 0] [0x2 2 2 [4 0] [0 6]] (REQUEST)
s 0.508048416 _5_ MAC  --- 0 ARP 86 [0 ffffffff 5 806] ------- [REQUEST 5/5 0/3]
s 0.508127761 _4_ RTR  --- 0 AODV 48 [0 ffffffff 3 800] ------- [4:255 -1:255 27 0] [0x2 4 1 [5 0] [0 4]] (REQUEST)
r 0.508736888 _4_ MAC  --- 0 ARP 28 [0 ffffffff 5 806] ------- [REQUEST 5/5 0/3]
r 0.508737083 _1_ MAC  --- 0 ARP 28 [0 ffffffff 5 806] ------- [REQUEST 5/5 0/3]
r 0.508737162 _3_ MAC  --- 0 ARP 28 [0 ffffffff 5 806] ------- [REQUEST 5/5 0/3]
s 0.508806888 _4_ MAC  --- 0 AODV 106 [0 ffffffff 4 800] ------- [4:255 -1:255 27 0] [0x2 4 1 [5 0] [0 4]] (REQUEST)
r 0.509655221 _3_ MAC  --- 0 AODV 48 [0 ffffffff 4 800] ------- [4:255 -1:255 27 0] [0x2 4 1 [5 0] [0 4]] (REQUEST)
r 0.509655359 _1_ MAC  --- 0 AODV 48 [0 ffffffff 4 800] ------- [4:255 -1:255 27 0] [0x2 4 1 [5 0] [0 4]] (REQUEST)
r 0.509655359 _5_ MAC  --- 0 AODV 48 [0 ffffffff 4 800] ------- [4:255 -1:255 27 0] [0x2 4 1 [5 0] [0 4]] (REQUEST)
r 0.509680221 _3_ RTR  --- 0 AODV 48 [0 ffffffff 4 800] ------- [4:255 -1:255 27 0] [0x2 4 1 [5 0] [0 4]] (REQUEST)
r 0.509680359 _1_ RTR  --- 0 AODV 48 [0 ffffffff 4 800] ------- [4:255 -1:255 27 0] [0x2 4 1 [5 0] [0 4]] (REQUEST)
r 0.509680359 _5_ RTR  --- 0 AODV 48 [0 ffffffff 4 800] ------- [4:255 -1:255 27 0] [0x2 4 1 [5 0] [0 4]] (REQUEST)
s 0.509979667 _1_ RTR  --- 0 AODV 48 [0 ffffffff 2 800] ------- [1:255 -1:255 28 0] [0x2 3 2 [4 0] [0 6]] (REQUEST)
s 0.510145221 _3_ MAC  --- 0 RTS 44 [52e 5 3 0] 
r 0.510497966 _5_ MAC  --- 0 RTS 44 [52e 5 3 0] 
s 0.510507966 _5_ MAC  --- 0 CTS 38 [3f4 3 0 0] 
r 0.510812712 _3_ MAC  --- 0 CTS 38 [3f4 3 0 0] 
s 0.510822712 _3_ MAC  --- 0 ARP 86 [13a 5 3 806] ------- [REPLY 3/3 5/5]
s 0.510886119 _3_ RTR  --- 0 AODV 48 [0 ffffffff 2 800] ------- [3:255 -1:255 28 0] [0x2 3 2 [4 0] [0 6]] (REQUEST)
s 0.511044185 _1_ RTR  --- 0 AODV 48 [0 ffffffff 2 800] ------- [1:255 -1:255 28 0] [0x2 3 1 [5 0] [0 4]] (REQUEST)
r 0.511511457 _5_ MAC  --- 0 ARP 28 [13a 5 3 806] ------- [REPLY 3/3 5/5]
s 0.511521457 _5_ MAC  --- 0 ACK 38 [0 3 0 0] 
r 0.511826202 _3_ MAC  --- 0 ACK 38 [0 3 0 0] 
s 0.512275457 _5_ MAC  --- 0 RTS 44 [5ae 3 5 0] 
r 0.512628202 _3_ MAC  --- 0 RTS 44 [5ae 3 5 0] 
s 0.512638202 _3_ MAC  --- 0 CTS 38 [474 5 0 0] 
r 0.512942948 _5_ MAC  --- 0 CTS 38 [474 5 0 0] 
s 0.512952948 _5_ MAC  --- 0 AODV 102 [13a 3 5 800] ------- [5:255 0:255 30 3] [0x4 1 [5 4] 10.000000] (REPLY)
r 0.513769693 _3_ MAC  --- 0 AODV 44 [13a 3 5 800] ------- [5:255 0:255 30 3] [0x4 1 [5 4] 10.000000] (REPLY)
s 0.513779693 _3_ MAC  --- 0 ACK 38 [0 5 0 0] 
r 0.513794693 _3_ RTR  --- 0 AODV 44 [13a 3 5 800] ------- [5:255 0:255 30 3] [0x4 1 [5 4] 10.000000] (REPLY)
f 0.513794693 _3_ RTR  --- 0 AODV 44 [13a 3 5 800] ------- [5:255 0:255 29 2] [0x4 2 [5 4] 10.000000] (REPLY)
r 0.514084438 _5_ MAC  --- 0 ACK 38 [0 5 0 0] 
s 0.514254026 _1_ MAC  --- 0 AODV 106 [0 ffffffff 1 800] ------- [1:255 -1:255 28 0] [0x2 3 2 [4 0] [0 6]] (REQUEST)
r 0.515102360 _3_ MAC  --- 0 AODV 48 [0 ffffffff 1 800] ------- [1:255 -1:255 28 0] [0x2 3 2 [4 0] [0 6]] (REQUEST)
r 0.515102498 _4_ MAC  --- 0 AODV 48 [0 ffffffff 1 800] ------- [1:255 -1:255 28 0] [0x2 3 2 [4 0] [0 6]] (REQUEST)
r 0.515102693 _5_ MAC  --- 0 AODV 48 [0 ffffffff 1 800] ------- [1:255 -1:255 28 0] [0x2 3 2 [4 0] [0 6]] (REQUEST)
r 0.515102772 _2_ MAC  --- 0 AODV 48 [0 ffffffff 1 800] ------- [1:255 -1:255 28 0] [0x2 3 2 [4 0] [0 6]] (REQUEST)
r 0.515127360 _3_ RTR  --- 0 AODV 48 [0 ffffffff 1 800] ------- [1:255 -1:255 28 0] [0x2 3 2 [4 0] [0 6]] (REQUEST)
r 0.515127498 _4_ RTR  --- 0 AODV 48 [0 ffffffff 1 800] ------- [1:255 -1:255 28 0] [0x2 3 2 [4 0] [0 6]] (REQUEST)
s 0.515127498 _4_ RTR  --- 0 AODV 44 [0 0 0 0] ------- [4:255 0:255 30 1] [0x4 1 [4 4] 10.000000] (REPLY)
r 0.515127693 _5_ RTR  --- 0 AODV 48 [0 ffffffff 1 800] ------- [1:255 -1:255 28 0] [0x2 3 2 [4 0] [0 6]] (REQUEST)
r 0.515127772 _2_ RTR  --- 0 AODV 48 [0 ffffffff 1 800] ------- [1:255 -1:255 28 0] [0x2 3 2 [4 0] [0 6]] (REQUEST)
s 0.515192026 _1_ MAC  --- 0 AODV 106 [0 ffffffff 1 800] ------- [1:255 -1:255 28 0] [0x2 3 1 [5 0] [0 4]] (REQUEST)
s 0.515192360 _3_ MAC  --- 0 AODV 106 [0 ffffffff 3 800] ------- [3:255 -1:255 28 0] [0x2 3 2 [4 0] [0 6]] (REQUEST)
D 0.515192693 _4_ MAC  COL 0 AODV 106 [0 ffffffff 1 800] ------- [1:255 -1:255 28 0] [0x2 3 1 [5 0] [0 4]] (REQUEST)
D 0.515193026 _2_ MAC  COL 0 AODV 106 [0 ffffffff 1 800] ------- [1:255 -1:255 28 0] [0x2 3 1 [5 0] [0 4]] (REQUEST)
D 0.515193105 _5_ MAC  COL 0 AODV 106 [0 ffffffff 1 800] ------- [1:255 -1:255 28 0] [0x2 3 1 [5 0] [0 4]] (REQUEST)
D 0.516040693 _4_ MAC  COL 0 AODV 106 [0 ffffffff 3 800] ------- [3:255 -1:255 28 0] [0x2 3 2 [4 0] [0 6]] (REQUEST)
D 0.516041026 _2_ MAC  COL 0 AODV 106 [0 ffffffff 3 800] ------- [3:255 -1:255 28 0] [0x2 3 2 [4 0] [0 6]] (REQUEST)
D 0.516041105 _5_ MAC  COL 0 AODV 106 [0 ffffffff 3 800] ------- [3:255 -1:255 28 0] [0x2 3 2 [4 0] [0 6]] (REQUEST)
s 0.516534360 _3_ MAC  --- 0 ARP 86 [0 ffffffff 3 806] ------- [REQUEST 3/3 0/2]
r 0.517222693 _1_ MAC  --- 0 ARP 28 [0 ffffffff 3 806] ------- [REQUEST 3/3 0/2]
r 0.517222693 _4_ MAC  --- 0 ARP 28 [0 ffffffff 3 806] ------- [REQUEST 3/3 0/2]
r 0.517223026 _2_ MAC  --- 0 ARP 28 [0 ffffffff 3 806] ------- [REQUEST 3/3 0/2]
r 0.517223105 _5_ MAC  --- 0 ARP 28 [0 ffffffff 3 806] ------- [REQUEST 3/3 0/2]
s 0.517478026 _2_ MAC  --- 0 RTS 44 [52e 3 2 0] 
r 0.517830693 _3_ MAC  --- 0 RTS 44 [52e 3 2 0] 
s 0.517840693 _3_ MAC  --- 0 CTS 38 [3f4 2 0 0] 
r 0.518145360 _2_ MAC  --- 0 CTS 38 [3f4 2 0 0] 
s 0.518155360 _2_ MAC  --- 0 ARP 86 [13a 3 2 806] ------- [REPLY 2/2 3/3]
r 0.518844026 _3_ MAC  --- 0 ARP 28 [13a 3 2 806] ------- [REPLY 2/2 3/3]
s 0.518854026 _3_ MAC  --- 0 ACK 38 [0 2 0 0] 
r 0.519158693 _2_ MAC  --- 0 ACK 38 [0 2 0 0] 
s 0.519288026 _3_ MAC  --- 0 RTS 44 [5ae 2 3 0] 
r 0.519640693 _2_ MAC  --- 0 RTS 44 [5ae 2 3 0] 
s 0.519650693 _2_ MAC  --- 0 CTS 38 [474 3 0 0] 
r 0.519955360 _3_ MAC  --- 0 CTS 38 [474 3 0 0] 
s 0.519965360 _3_ MAC  --- 0 AODV 102 [13a 2 3 800] ------- [5:255 0:255 29 2] [0x4 2 [5 4] 10.000000] (REPLY)
r 0.520782026 _2_ MAC  --- 0 AODV 44 [13a 2 3 800] ------- [5:255 0:255 29 2] [0x4 2 [5 4] 10.000000] (REPLY)
s 0.520792026 _2_ MAC  --- 0 ACK 38 [0 3 0 0] 
r 0.520807026 _2_ RTR  --- 0 AODV 44 [13a 2 3 800] ------- [5:255 0:255 29 2] [0x4 2 [5 4] 10.000000] (REPLY)
f 0.520807026 _2_ RTR  --- 0 AODV 44 [13a 2 3 800] ------- [5:255 0:255 28 0] [0x4 3 [5 4] 10.000000] (REPLY)
r 0.521096693 _3_ MAC  --- 0 ACK 38 [0 3 0 0] 
s 0.521186026 _2_ MAC  --- 0 ARP 86 [0 ffffffff 2 806] ------- [REQUEST 2/2 0/0]
r 0.521874693 _3_ MAC  --- 0 ARP 28 [0 ffffffff 2 806] ------- [REQUEST 2/2 0/0]
r 0.521874772 _0_ MAC  --- 0 ARP 28 [0 ffffffff 2 806] ------- [REQUEST 2/2 0/0]
r 0.521874772 _1_ MAC  --- 0 ARP 28 [0 ffffffff 2 806] ------- [REQUEST 2/2 0/0]
s 0.521901182 _5_ RTR  --- 0 AODV 48 [0 ffffffff 1 800] ------- [5:255 -1:255 27 0] [0x2 4 2 [4 0] [0 6]] (REQUEST)
s 0.522129772 _0_ MAC  --- 0 RTS 44 [52e 2 0 0] 
r 0.522482517 _2_ MAC  --- 0 RTS 44 [52e 2 0 0] 
s 0.522492517 _2_ MAC  --- 0 CTS 38 [3f4 0 0 0] 
r 0.522797262 _0_ MAC  --- 0 CTS 38 [3f4 0 0 0] 
s 0.522807262 _0_ MAC  --- 0 ARP 86 [13a 2 0 806] ------- [REPLY 0/0 2/2]
r 0.523496008 _2_ MAC  --- 0 ARP 28 [13a 2 0 806] ------- [REPLY 0/0 2/2]
s 0.523506008 _2_ MAC  --- 0 ACK 38 [0 0 0 0] 
r 0.523810753 _0_ MAC  --- 0 ACK 38 [0 0 0 0] 
s 0.523880008 _2_ MAC  --- 0 RTS 44 [5ae 0 2 0] 
r 0.524232753 _0_ MAC  --- 0 RTS 44 [5ae 0 2 0] 
s 0.524242753 _0_ MAC  --- 0 CTS 38 [474 2 0 0] 
r 0.524547498 _2_ MAC  --- 0 CTS 38 [474 2 0 0] 
s 0.524557498 _2_ MAC  --- 0 AODV 102 [13a 0 2 800] ------- [5:255 0:255 28 0] [0x4 3 [5 4] 10.000000] (REPLY)
r 0.525374244 _0_ MAC  --- 0 AODV 44 [13a 0 2 800] ------- [5:255 0:255 28 0] [0x4 3 [5 4] 10.000000] (REPLY)
s 0.525384244 _0_ MAC  --- 0 ACK 38 [0 2 0 0] 
r 0.525399244 _0_ RTR  --- 0 AODV 44 [13a 0 2 800] ------- [5:255 0:255 28 0] [0x4 3 [5 4] 10.000000] (REPLY)
s 0.525399244 _0_ RTR  --- 0 cbr 3020 [0 0 0 0] ------- [0:2 5:0 30 2] [0] 0 0
r 0.525688989 _2_ MAC  --- 0 ACK 38 [0 2 0 0] 
s 0.525778244 _0_ MAC  --- 0 RTS 44 [62ae 2 0 0] 
s 0.525888873 _5_ MAC  --- 0 AODV 106 [0 ffffffff 5 800] ------- [5:255 -1:255 27 0] [0x2 4 2 [4 0] [0 6]] (REQUEST)
r 0.526130989 _2_ MAC  --- 0 RTS 44 [62ae 2 0 0] 
D 0.526737344 _4_ MAC  COL 0 AODV 106 [0 ffffffff 5 800] ------- [5:255 -1:255 27 0] [0x2 4 2 [4 0] [0 6]] (REQUEST)
D 0.526737540 _1_ MAC  COL 0 AODV 106 [0 ffffffff 5 800] ------- [5:255 -1:255 27 0] [0x2 4 2 [4 0] [0 6]] (REQUEST)
D 0.526737618 _3_ MAC  COL 0 AODV 106 [0 ffffffff 5 800] ------- [5:255 -1:255 27 0] [0x2 4 2 [4 0] [0 6]] (REQUEST)
s 0.527218244 _0_ MAC  --- 0 RTS 44 [62ae 2 0 0] 
r 0.527570989 _2_ MAC  --- 0 RTS 44 [62ae 2 0 0] 
s 0.527580989 _2_ MAC  --- 0 CTS 38 [6174 0 0 0] 
r 0.527885735 _0_ MAC  --- 0 CTS 38 [6174 0 0 0] 
s 0.527895735 _0_ MAC  --- 0 cbr 3078 [13a 2 0 800] ------- [0:2 5:0 30 2] [0] 0 0
s 0.530000000 _0_ AGT  --- 2 cbr 3000 [0 0 0 0] ------- [0:2 5:0 32 0] [1] 0 0
r 0.530000000 _0_ RTR  --- 2 cbr 3000 [0 0 0 0] ------- [0:2 5:0 32 0] [1] 0 0
s 0.530000000 _0_ AGT  --- 3 cbr 3000 [0 0 0 0] ------- [0:3 4:0 32 0] [1] 0 0
r 0.530000000 _0_ RTR  --- 3 cbr 3000 [0 0 0 0] ------- [0:3 4:0 32 0] [1] 0 0
s 0.530000000 _0_ RTR  --- 2 cbr 3020 [0 0 0 0] ------- [0:2 5:0 30 2] [1] 0 0
r 0.552520480 _2_ MAC  --- 0 cbr 3020 [13a 2 0 800] ------- [0:2 5:0 30 2] [0] 1 0
s 0.552530480 _2_ MAC  --- 0 ACK 38 [0 0 0 0] 
r 0.552545480 _2_ RTR  --- 0 cbr 3020 [13a 2 0 800] ------- [0:2 5:0 30 2] [0] 1 0
f 0.552545480 _2_ RTR  --- 0 cbr 3020 [13a 2 0 800] ------- [0:2 5:0 29 3] [0] 1 0
r 0.552835225 _0_ MAC  --- 0 ACK 38 [0 0 0 0] 
s 0.552904480 _2_ MAC  --- 0 RTS 44 [62ae 3 2 0] 
r 0.553257147 _3_ MAC  --- 0 RTS 44 [62ae 3 2 0] 
s 0.553267147 _3_ MAC  --- 0 CTS 38 [6174 2 0 0] 
r 0.553571813 _2_ MAC  --- 0 CTS 38 [6174 2 0 0] 
s 0.553581813 _2_ MAC  --- 0 cbr 3078 [13a 3 2 800] ------- [0:2 5:0 29 3] [0] 1 0
s 0.560000000 _0_ AGT  --- 4 cbr 3000 [0 0 0 0] ------- [0:2 5:0 32 0] [2] 0 0
r 0.560000000 _0_ RTR  --- 4 cbr 3000 [0 0 0 0] ------- [0:2 5:0 32 0] [2] 0 0
s 0.560000000 _0_ AGT  --- 5 cbr 3000 [0 0 0 0] ------- [0:3 4:0 32 0] [2] 0 0
r 0.560000000 _0_ RTR  --- 5 cbr 3000 [0 0 0 0] ------- [0:3 4:0 32 0] [2] 0 0
s 0.560000000 _0_ RTR  --- 4 cbr 3020 [0 0 0 0] ------- [0:2 5:0 30 2] [2] 0 0
r 0.578206480 _3_ MAC  --- 0 cbr 3020 [13a 3 2 800] ------- [0:2 5:0 29 3] [0] 2 0
s 0.578216480 _3_ MAC  --- 0 ACK 38 [0 2 0 0] 
r 0.578231480 _3_ RTR  --- 0 cbr 3020 [13a 3 2 800] ------- [0:2 5:0 29 3] [0] 2 0
f 0.578231480 _3_ RTR  --- 0 cbr 3020 [13a 3 2 800] ------- [0:2 5:0 28 5] [0] 2 0
r 0.578521147 _2_ MAC  --- 0 ACK 38 [0 2 0 0] 
s 0.578640813 _4_ MAC  --- 0 ARP 86 [0 ffffffff 4 806] ------- [REQUEST 4/4 0/1]
r 0.579329147 _3_ MAC  --- 0 ARP 28 [0 ffffffff 4 806] ------- [REQUEST 4/4 0/1]
r 0.579329285 _1_ MAC  --- 0 ARP 28 [0 ffffffff 4 806] ------- [REQUEST 4/4 0/1]
r 0.579329285 _5_ MAC  --- 0 ARP 28 [0 ffffffff 4 806] ------- [REQUEST 4/4 0/1]
s 0.579539147 _3_ MAC  --- 0 RTS 44 [62ae 5 3 0] 
r 0.579891892 _5_ MAC  --- 0 RTS 44 [62ae 5 3 0] 
s 0.579901892 _5_ MAC  --- 0 CTS 38 [6174 3 0 0] 
r 0.580206637 _3_ MAC  --- 0 CTS 38 [6174 3 0 0] 
s 0.580216637 _3_ MAC  --- 0 cbr 3078 [13a 5 3 800] ------- [0:2 5:0 28 5] [0] 2 0
s 0.590000000 _0_ AGT  --- 6 cbr 3000 [0 0 0 0] ------- [0:2 5:0 32 0] [3] 0 0
r 0.590000000 _0_ RTR  --- 6 cbr 3000 [0 0 0 0] ------- [0:2 5:0 32 0] [3] 0 0
s 0.590000000 _0_ AGT  --- 7 cbr 3000 [0 0 0 0] ------- [0:3 4:0 32 0] [3] 0 0
r 0.590000000 _0_ RTR  --- 7 cbr 3000 [0 0 0 0] ------- [0:3 4:0 32 0] [3] 0 0
s 0.590000000 _0_ RTR  --- 6 cbr 3020 [0 0 0 0] ------- [0:2 5:0 30 2] [3] 0 0
r 0.604841383 _5_ MAC  --- 0 cbr 3020 [13a 5 3 800] ------- [0:2 5:0 28 5] [0] 3 0
s 0.604851383 _5_ MAC  --- 0 ACK 38 [0 3 0 0] 
r 0.604866383 _5_ AGT  --- 0 cbr 3020 [13a 5 3 800] ------- [0:2 5:0 28 5] [0] 3 0
r 0.605156128 _3_ MAC  --- 0 ACK 38 [0 3 0 0] 
s 0.605515839 _0_ MAC  --- 0 RTS 44 [62ae 2 0 0] 
r 0.605868585 _2_ MAC  --- 0 RTS 44 [62ae 2 0 0] 
s 0.605878585 _2_ MAC  --- 0 CTS 38 [6174 0 0 0] 
r 0.606183330 _0_ MAC  --- 0 CTS 38 [6174 0 0 0] 
s 0.606193330 _0_ MAC  --- 2 cbr 3078 [13a 2 0 800] ------- [0:2 5:0 30 2] [1] 0 0
s 0.620000000 _0_ AGT  --- 8 cbr 3000 [0 0 0 0] ------- [0:2 5:0 32 0] [4] 0 0
r 0.620000000 _0_ RTR  --- 8 cbr 3000 [0 0 0 0] ------- [0:2 5:0 32 0] [4] 0 0
s 0.620000000 _0_ AGT  --- 9 cbr 3000 [0 0 0 0] ------- [0:3 4:0 32 0] [4] 0 0
r 0.620000000 _0_ RTR  --- 9 cbr 3000 [0 0 0 0] ------- [0:3 4:0 32 0] [4] 0 0
s 0.620000000 _0_ RTR  --- 8 cbr 3020 [0 0 0 0] ------- [0:2 5:0 30 2] [4] 0 0
r 0.630818075 _2_ MAC  --- 2 cbr 3020 [13a 2 0 800] ------- [0:2 5:0 30 2] [1] 1 0
s 0.630828075 _2_ MAC  --- 0 ACK 38 [0 0 0 0] 
r 0.630843075 _2_ RTR  --- 2 cbr 3020 [13a 2 0 800] ------- [0:2 5:0 30 2] [1] 1 0
f 0.630843075 _2_ RTR  --- 2 cbr 3020 [13a 2 0 800] ------- [0:2 5:0 29 3] [1] 1 0
r 0.631132821 _0_ MAC  --- 0 ACK 38 [0 0 0 0] 
s 0.631272744 _1_ MAC  --- 0 RTS 44 [52e 4 1 0] 
r 0.631625215 _4_ MAC  --- 0 RTS 44 [52e 4 1 0] 
s 0.631635215 _4_ MAC  --- 0 CTS 38 [3f4 1 0 0] 
r 0.631939687 _1_ MAC  --- 0 CTS 38 [3f4 1 0 0] 
s 0.631949687 _1_ MAC  --- 0 ARP 86 [13a 4 1 806] ------- [REPLY 1/1 4/4]
r 0.632638158 _4_ MAC  --- 0 ARP 28 [13a 4 1 806] ------- [REPLY 1/1 4/4]
s 0.632648158 _4_ MAC  --- 0 ACK 38 [0 1 0 0] 
r 0.632952630 _1_ MAC  --- 0 ACK 38 [0 1 0 0] 
s 0.633322158 _4_ MAC  --- 0 RTS 44 [5ae 1 4 0] 
r 0.633674630 _1_ MAC  --- 0 RTS 44 [5ae 1 4 0] 
s 0.633684630 _1_ MAC  --- 0 CTS 38 [474 4 0 0] 
r 0.633989101 _4_ MAC  --- 0 CTS 38 [474 4 0 0] 
s 0.633999101 _4_ MAC  --- 0 AODV 102 [13a 1 4 800] ------- [4:255 0:255 30 1] [0x4 1 [4 4] 10.000000] (REPLY)
r 0.634815573 _1_ MAC  --- 0 AODV 44 [13a 1 4 800] ------- [4:255 0:255 30 1] [0x4 1 [4 4] 10.000000] (REPLY)
s 0.634825573 _1_ MAC  --- 0 ACK 38 [0 4 0 0] 
r 0.634840573 _1_ RTR  --- 0 AODV 44 [13a 1 4 800] ------- [4:255 0:255 30 1] [0x4 1 [4 4] 10.000000] (REPLY)
f 0.634840573 _1_ RTR  --- 0 AODV 44 [13a 1 4 800] ------- [4:255 0:255 29 2] [0x4 2 [4 4] 10.000000] (REPLY)
r 0.635130044 _4_ MAC  --- 0 ACK 38 [0 4 0 0] 
s 0.635270101 _2_ MAC  --- 0 RTS 44 [62ae 3 2 0] 
r 0.635622768 _3_ MAC  --- 0 RTS 44 [62ae 3 2 0] 
s 0.635632768 _3_ MAC  --- 0 CTS 38 [6174 2 0 0] 
r 0.635937434 _2_ MAC  --- 0 CTS 38 [6174 2 0 0] 
s 0.635947434 _2_ MAC  --- 2 cbr 3078 [13a 3 2 800] ------- [0:2 5:0 29 3] [1] 1 0
s 0.650000000 _0_ AGT  --- 10 cbr 3000 [0 0 0 0] ------- [0:2 5:0 32 0] [5] 0 0
r 0.650000000 _0_ RTR  --- 10 cbr 3000 [0 0 0 0] ------- [0:2 5:0 32 0] [5] 0 0
s 0.650000000 _0_ AGT  --- 11 cbr 3000 [0 0 0 0] ------- [0:3 4:0 32 0] [5] 0 0
r 0.650000000 _0_ RTR  --- 11 cbr 3000 [0 0 0 0] ------- [0:3 4:0 32 0] [5] 0 0
s 0.650000000 _0_ RTR  --- 10 cbr 3020 [0 0 0 0] ------- [0:2 5:0 30 2] [5] 0 0
r 0.660572101 _3_ MAC  --- 2 cbr 3020 [13a 3 2 800] ------- [0:2 5:0 29 3] [1] 2 0
s 0.660582101 _3_ MAC  --- 0 ACK 38 [0 2 0 0] 
r 0.660597101 _3_ RTR  --- 2 cbr 3020 [13a 3 2 800] ------- [0:2 5:0 29 3] [1] 2 0
f 0.660597101 _3_ RTR  --- 2 cbr 3020 [13a 3 2 800] ------- [0:2 5:0 28 5] [1] 2 0
r 0.660886768 _2_ MAC  --- 0 ACK 38 [0 2 0 0] 
s 0.661076434 _1_ MAC  --- 0 RTS 44 [5ae 2 1 0] 
r 0.661429180 _2_ MAC  --- 0 RTS 44 [5ae 2 1 0] 
s 0.661439180 _2_ MAC  --- 0 CTS 38 [474 1 0 0] 
r 0.661743925 _1_ MAC  --- 0 CTS 38 [474 1 0 0] 
s 0.661753925 _1_ MAC  --- 0 AODV 102 [13a 2 1 800] ------- [4:255 0:255 29 2] [0x4 2 [4 4] 10.000000] (REPLY)
r 0.662570670 _2_ MAC  --- 0 AODV 44 [13a 2 1 800] ------- [4:255 0:255 29 2] [0x4 2 [4 4] 10.000000] (REPLY)
s 0.662580670 _2_ MAC  --- 0 ACK 38 [0 1 0 0] 
r 0.662595670 _2_ RTR  --- 0 AODV 44 [13a 2 1 800] ------- [4:255 0:255 29 2] [0x4 2 [4 4] 10.000000] (REPLY)
f 0.662595670 _2_ RTR  --- 0 AODV 44 [13a 2 1 800] ------- [4:255 0:255 28 0] [0x4 3 [4 4] 10.000000] (REPLY)
r 0.662885416 _1_ MAC  --- 0 ACK 38 [0 1 0 0] 
s 0.663095337 _3_ MAC  --- 0 RTS 44 [62ae 5 3 0] 
r 0.663448083 _5_ MAC  --- 0 RTS 44 [62ae 5 3 0] 
s 0.663458083 _5_ MAC  --- 0 CTS 38 [6174 3 0 0] 
r 0.663762828 _3_ MAC  --- 0 CTS 38 [6174 3 0 0] 
s 0.663772828 _3_ MAC  --- 2 cbr 3078 [13a 5 3 800] ------- [0:2 5:0 28 5] [1] 2 0
s 0.680000000 _0_ AGT  --- 12 cbr 3000 [0 0 0 0] ------- [0:2 5:0 32 0] [6] 0 0
r 0.680000000 _0_ RTR  --- 12 cbr 3000 [0 0 0 0] ------- [0:2 5:0 32 0] [6] 0 0
s 0.680000000 _0_ AGT  --- 13 cbr 3000 [0 0 0 0] ------- [0:3 4:0 32 0] [6] 0 0
r 0.680000000 _0_ RTR  --- 13 cbr 3000 [0 0 0 0] ------- [0:3 4:0 32 0] [6] 0 0
s 0.680000000 _0_ RTR  --- 12 cbr 3020 [0 0 0 0] ------- [0:2 5:0 30 2] [6] 0 0
r 0.688397573 _5_ MAC  --- 2 cbr 3020 [13a 5 3 800] ------- [0:2 5:0 28 5] [1] 3 0
s 0.688407573 _5_ MAC  --- 0 ACK 38 [0 3 0 0] 
r 0.688422573 _5_ AGT  --- 2 cbr 3020 [13a 5 3 800] ------- [0:2 5:0 28 5] [1] 3 0
r 0.688712319 _3_ MAC  --- 0 ACK 38 [0 3 0 0] 
s 0.688852030 _0_ MAC  --- 0 RTS 44 [62ae 2 0 0] 
r 0.689204775 _2_ MAC  --- 0 RTS 44 [62ae 2 0 0] 
s 0.689214775 _2_ MAC  --- 0 CTS 38 [6174 0 0 0] 
r 0.689519520 _0_ MAC  --- 0 CTS 38 [6174 0 0 0] 
s 0.689529520 _0_ MAC  --- 4 cbr 3078 [13a 2 0 800] ------- [0:2 5:0 30 2] [2] 0 0
s 0.710000000 _0_ AGT  --- 14 cbr 3000 [0 0 0 0] ------- [0:2 5:0 32 0] [7] 0 0
r 0.710000000 _0_ RTR  --- 14 cbr 3000 [0 0 0 0] ------- [0:2 5:0 32 0] [7] 0 0
s 0.710000000 _0_ AGT  --- 15 cbr 3000 [0 0 0 0] ------- [0:3 4:0 32 0] [7] 0 0
r 0.710000000 _0_ RTR  --- 15 cbr 3000 [0 0 0 0] ------- [0:3 4:0 32 0] [7] 0 0
s 0.710000000 _0_ RTR  --- 14 cbr 3020 [0 0 0 0] ------- [0:2 5:0 30 2] [7] 0 0
r 0.714154266 _2_ MAC  --- 4 cbr 3020 [13a 2 0 800] ------- [0:2 5:0 30 2] [2] 1 0
s 0.714164266 _2_ MAC  --- 0 ACK 38 [0 0 0 0] 
r 0.714179266 _2_ RTR  --- 4 cbr 3020 [13a 2 0 800] ------- [0:2 5:0 30 2] [2] 1 0
f 0.714179266 _2_ RTR  --- 4 cbr 3020 [13a 2 0 800] ------- [0:2 5:0 29 3] [2] 1 0
r 0.714469011 _0_ MAC  --- 0 ACK 38 [0 0 0 0] 
s 0.714539011 _0_ MAC  --- 0 RTS 44 [62ae 2 0 0] 
r 0.714891757 _2_ MAC  --- 0 RTS 44 [62ae 2 0 0] 
s 0.714901757 _2_ MAC  --- 0 CTS 38 [6174 0 0 0] 
r 0.715206502 _0_ MAC  --- 0 CTS 38 [6174 0 0 0] 
s 0.715216502 _0_ MAC  --- 6 cbr 3078 [13a 2 0 800] ------- [0:2 5:0 30 2] [3] 0 0
r 0.739841247 _2_ MAC  --- 6 cbr 3020 [13a 2 0 800] ------- [0:2 5:0 30 2] [3] 1 0
s 0.739851247 _2_ MAC  --- 0 ACK 38 [0 0 0 0] 
r 0.739866247 _2_ RTR  --- 6 cbr 3020 [13a 2 0 800] ------- [0:2 5:0 30 2] [3] 1 0
f 0.739866247 _2_ RTR  --- 6 cbr 3020 [13a 2 0 800] ------- [0:2 5:0 29 3] [3] 1 0
s 0.740000000 _0_ AGT  --- 16 cbr 3000 [0 0 0 0] ------- [0:2 5:0 32 0] [8] 0 0
r 0.740000000 _0_ RTR  --- 16 cbr 3000 [0 0 0 0] ------- [0:2 5:0 32 0] [8] 0 0
s 0.740000000 _0_ AGT  --- 17 cbr 3000 [0 0 0 0] ------- [0:3 4:0 32 0] [8] 0 0
r 0.740000000 _0_ RTR  --- 17 cbr 3000 [0 0 0 0] ------- [0:3 4:0 32 0] [8] 0 0
s 0.740000000 _0_ RTR  --- 16 cbr 3020 [0 0 0 0] ------- [0:2 5:0 30 2] [8] 0 0
r 0.740155993 _0_ MAC  --- 0 ACK 38 [0 0 0 0] 
s 0.740265247 _2_ MAC  --- 0 RTS 44 [5ae 0 2 0] 
r 0.740617993 _0_ MAC  --- 0 RTS 44 [5ae 0 2 0] 
s 0.740627993 _0_ MAC  --- 0 CTS 38 [474 2 0 0] 
r 0.740932738 _2_ MAC  --- 0 CTS 38 [474 2 0 0] 
s 0.740942738 _2_ MAC  --- 0 AODV 102 [13a 0 2 800] ------- [4:255 0:255 28 0] [0x4 3 [4 4] 10.000000] (REPLY)
r 0.741759483 _0_ MAC  --- 0 AODV 44 [13a 0 2 800] ------- [4:255 0:255 28 0] [0x4 3 [4 4] 10.000000] (REPLY)
s 0.741769483 _0_ MAC  --- 0 ACK 38 [0 2 0 0] 
r 0.741784483 _0_ RTR  --- 0 AODV 44 [13a 0 2 800] ------- [4:255 0:255 28 0] [0x4 3 [4 4] 10.000000] (REPLY)
s 0.741784483 _0_ RTR  --- 1 cbr 3020 [0 0 0 0] ------- [0:3 4:0 30 2] [0] 0 0
r 0.742074229 _2_ MAC  --- 0 ACK 38 [0 2 0 0] 
s 0.742364229 _2_ MAC  --- 0 RTS 44 [62ae 3 2 0] 
r 0.742716895 _3_ MAC  --- 0 RTS 44 [62ae 3 2 0] 
s 0.742726895 _3_ MAC  --- 0 CTS 38 [6174 2 0 0] 
r 0.743031562 _2_ MAC  --- 0 CTS 38 [6174 2 0 0] 
s 0.743041562 _2_ MAC  --- 4 cbr 3078 [13a 3 2 800] ------- [0:2 5:0 29 3] [2] 1 0
s 0.751784483 _0_ RTR  --- 3 cbr 3020 [0 0 0 0] ------- [0:3 4:0 30 2] [1] 0 0
s 0.761784483 _0_ RTR  --- 5 cbr 3020 [0 0 0 0] ------- [0:3 4:0 30 2] [2] 0 0
r 0.767666229 _3_ MAC  --- 4 cbr 3020 [13a 3 2 800] ------- [0:2 5:0 29 3] [2] 2 0
s 0.767676229 _3_ MAC  --- 0 ACK 38 [0 2 0 0] 
r 0.767691229 _3_ RTR  --- 4 cbr 3020 [13a 3 2 800] ------- [0:2 5:0 29 3] [2] 2 0
f 0.767691229 _3_ RTR  --- 4 cbr 3020 [13a 3 2 800] ------- [0:2 5:0 28 5] [2] 2 0
r 0.767980895 _2_ MAC  --- 0 ACK 38 [0 2 0 0] 
s 0.768150895 _2_ MAC  --- 0 RTS 44 [62ae 3 2 0] 
r 0.768503562 _3_ MAC  --- 0 RTS 44 [62ae 3 2 0] 
s 0.768513562 _3_ MAC  --- 0 CTS 38 [6174 2 0 0] 
r 0.768818229 _2_ MAC  --- 0 CTS 38 [6174 2 0 0] 
s 0.768828229 _2_ MAC  --- 6 cbr 3078 [13a 3 2 800] ------- [0:2 5:0 29 3] [3] 1 0
s 0.770000000 _0_ AGT  --- 18 cbr 3000 [0 0 0 0] ------- [0:2 5:0 32 0] [9] 0 0
r 0.770000000 _0_ RTR  --- 18 cbr 3000 [0 0 0 0] ------- [0:2 5:0 32 0] [9] 0 0
s 0.770000000 _0_ AGT  --- 19 cbr 3000 [0 0 0 0] ------- [0:3 4:0 32 0] [9] 0 0
r 0.770000000 _0_ RTR  --- 19 cbr 3000 [0 0 0 0] ------- [0:3 4:0 32 0] [9] 0 0
s 0.770000000 _0_ RTR  --- 18 cbr 3020 [0 0 0 0] ------- [0:2 5:0 30 2] [9] 0 0
s 0.770000000 _0_ RTR  --- 19 cbr 3020 [0 0 0 0] ------- [0:3 4:0 30 2] [9] 0 0
s 0.771784483 _0_ RTR  --- 7 cbr 3020 [0 0 0 0] ------- [0:3 4:0 30 2] [3] 0 0
s 0.781784483 _0_ RTR  --- 9 cbr 3020 [0 0 0 0] ------- [0:3 4:0 30 2] [4] 0 0
s 0.791784483 _0_ RTR  --- 11 cbr 3020 [0 0 0 0] ------- [0:3 4:0 30 2] [5] 0 0
r 0.793452895 _3_ MAC  --- 6 cbr 3020 [13a 3 2 800] ------- [0:2 5:0 29 3] [3] 2 0
s 0.793462895 _3_ MAC  --- 0 ACK 38 [0 2 0 0] 
r 0.793477895 _3_ RTR  --- 6 cbr 3020 [13a 3 2 800] ------- [0:2 5:0 29 3] [3] 2 0
f 0.793477895 _3_ RTR  --- 6 cbr 3020 [13a 3 2 800] ------- [0:2 5:0 28 5] [3] 2 0
r 0.793767562 _2_ MAC  --- 0 ACK 38 [0 2 0 0] 
s 0.793896895 _3_ MAC  --- 0 RTS 44 [62ae 5 3 0] 
r 0.794249641 _5_ MAC  --- 0 RTS 44 [62ae 5 3 0] 
s 0.794259641 _5_ MAC  --- 0 CTS 38 [6174 3 0 0] 
r 0.794564386 _3_ MAC  --- 0 CTS 38 [6174 3 0 0] 
s 0.794574386 _3_ MAC  --- 4 cbr 3078 [13a 5 3 800] ------- [0:2 5:0 28 5] [2] 2 0
s 0.800000000 _0_ AGT  --- 20 cbr 3000 [0 0 0 0] ------- [0:2 5:0 32 0] [10] 0 0
r 0.800000000 _0_ RTR  --- 20 cbr 3000 [0 0 0 0] ------- [0:2 5:0 32 0] [10] 0 0
s 0.800000000 _0_ AGT  --- 21 cbr 3000 [0 0 0 0] ------- [0:3 4:0 32 0] [10] 0 0
r 0.800000000 _0_ RTR  --- 21 cbr 3000 [0 0 0 0] ------- [0:3 4:0 32 0] [10] 0 0
s 0.800000000 _0_ RTR  --- 20 cbr 3020 [0 0 0 0] ------- [0:2 5:0 30 2] [10] 0 0
s 0.800000000 _0_ RTR  --- 21 cbr 3020 [0 0 0 0] ------- [0:3 4:0 30 2] [10] 0 0
s 0.801784483 _0_ RTR  --- 13 cbr 3020 [0 0 0 0] ------- [0:3 4:0 30 2] [6] 0 0
s 0.811784483 _0_ RTR  --- 15 cbr 3020 [0 0 0 0] ------- [0:3 4:0 30 2] [7] 0 0
r 0.819199131 _5_ MAC  --- 4 cbr 3020 [13a 5 3 800] ------- [0:2 5:0 28 5] [2] 3 0
s 0.819209131 _5_ MAC  --- 0 ACK 38 [0 3 0 0] 
r 0.819224131 _5_ AGT  --- 4 cbr 3020 [13a 5 3 800] ------- [0:2 5:0 28 5] [2] 3 0
r 0.819513877 _3_ MAC  --- 0 ACK 38 [0 3 0 0] 
s 0.819603877 _3_ MAC  --- 0 RTS 44 [62ae 5 3 0] 
r 0.819956622 _5_ MAC  --- 0 RTS 44 [62ae 5 3 0] 
s 0.819966622 _5_ MAC  --- 0 CTS 38 [6174 3 0 0] 
r 0.820271367 _3_ MAC  --- 0 CTS 38 [6174 3 0 0] 
s 0.820281367 _3_ MAC  --- 6 cbr 3078 [13a 5 3 800] ------- [0:2 5:0 28 5] [3] 2 0
s 0.821784483 _0_ RTR  --- 17 cbr 3020 [0 0 0 0] ------- [0:3 4:0 30 2] [8] 0 0
s 0.830000000 _0_ AGT  --- 22 cbr 3000 [0 0 0 0] ------- [0:2 5:0 32 0] [11] 0 0
r 0.830000000 _0_ RTR  --- 22 cbr 3000 [0 0 0 0] ------- [0:2 5:0 32 0] [11] 0 0
s 0.830000000 _0_ AGT  --- 23 cbr 3000 [0 0 0 0] ------- [0:3 4:0 32 0] [11] 0 0
r 0.830000000 _0_ RTR  --- 23 cbr 3000 [0 0 0 0] ------- [0:3 4:0 32 0] [11] 0 0
s 0.830000000 _0_ RTR  --- 22 cbr 3020 [0 0 0 0] ------- [0:2 5:0 30 2] [11] 0 0
s 0.830000000 _0_ RTR  --- 23 cbr 3020 [0 0 0 0] ------- [0:3 4:0 30 2] [11] 0 0
r 0.844906113 _5_ MAC  --- 6 cbr 3020 [13a 5 3 800] ------- [0:2 5:0 28 5] [3] 3 0
s 0.844916113 _5_ MAC  --- 0 ACK 38 [0 3 0 0] 
r 0.844931113 _5_ AGT  --- 6 cbr 3020 [13a 5 3 800] ------- [0:2 5:0 28 5] [3] 3 0
r 0.845220858 _3_ MAC  --- 0 ACK 38 [0 3 0 0] 
s 0.845500569 _0_ MAC  --- 0 RTS 44 [62ae 2 0 0] 
r 0.845853315 _2_ MAC  --- 0 RTS 44 [62ae 2 0 0] 
s 0.845863315 _2_ MAC  --- 0 CTS 38 [6174 0 0 0] 
r 0.846168060 _0_ MAC  --- 0 CTS 38 [6174 0 0 0] 
s 0.846178060 _0_ MAC  --- 8 cbr 3078 [13a 2 0 800] ------- [0:2 5:0 30 2] [4] 0 0
s 0.860000000 _0_ AGT  --- 24 cbr 3000 [0 0 0 0] ------- [0:2 5:0 32 0] [12] 0 0
r 0.860000000 _0_ RTR  --- 24 cbr 3000 [0 0 0 0] ------- [0:2 5:0 32 0] [12] 0 0
s 0.860000000 _0_ AGT  --- 25 cbr 3000 [0 0 0 0] ------- [0:3 4:0 32 0] [12] 0 0
r 0.860000000 _0_ RTR  --- 25 cbr 3000 [0 0 0 0] ------- [0:3 4:0 32 0] [12] 0 0
s 0.860000000 _0_ RTR  --- 24 cbr 3020 [0 0 0 0] ------- [0:2 5:0 30 2] [12] 0 0
s 0.860000000 _0_ RTR  --- 25 cbr 3020 [0 0 0 0] ------- [0:3 4:0 30 2] [12] 0 0
r 0.870802805 _2_ MAC  --- 8 cbr 3020 [13a 2 0 800] ------- [0:2 5:0 30 2] [4] 1 0
s 0.870812805 _2_ MAC  --- 0 ACK 38 [0 0 0 0] 
r 0.870827805 _2_ RTR  --- 8 cbr 3020 [13a 2 0 800] ------- [0:2 5:0 30 2] [4] 1 0
f 0.870827805 _2_ RTR  --- 8 cbr 3020 [13a 2 0 800] ------- [0:2 5:0 29 3] [4] 1 0
r 0.871117551 _0_ MAC  --- 0 ACK 38 [0 0 0 0] 
s 0.871287551 _0_ MAC  --- 0 RTS 44 [62ae 2 0 0] 
r 0.871640296 _2_ MAC  --- 0 RTS 44 [62ae 2 0 0] 
s 0.871650296 _2_ MAC  --- 0 CTS 38 [6174 0 0 0] 
r 0.871955041 _0_ MAC  --- 0 CTS 38 [6174 0 0 0] 