M 0.00000 0 (0.00, 0.00, 0.00), (200.00, 400.00), 3000.00
M 0.00000 1 (0.00, 0.00, 0.00), (400.00, 245.00), 3000.00
M 0.00000 2 (0.00, 0.00, 0.00), (400.00, 150.00), 3000.00
M 0.00000 3 (0.00, 0.00, 0.00), (400.00, 200.00), 3000.00
M 0.00000 4 (0.00, 0.00, 0.00), (400.00, 250.00), 3000.00
M 0.00000 5 (0.00, 0.00, 0.00), (600.00, 400.00), 3000.00
s 0.100000000 _0_ AGT  --- 0 cbr 1000 [0 0 0 0] ------- [0:2 5:0 32 0] [0] 0 0
r 0.100000000 _0_ RTR  --- 0 cbr 1000 [0 0 0 0] ------- [0:2 5:0 32 0] [0] 0 0
s 0.100000000 _0_ RTR  --- 0 AODV 48 [0 0 0 0] ------- [0:255 -1:255 30 0] [0x2 1 1 [5 0] [0 4]] (REQUEST)
s 0.100235000 _0_ MAC  --- 0 AODV 106 [0 ffffffff 0 800] ------- [0:255 -1:255 30 0] [0x2 1 1 [5 0] [0 4]] (REQUEST)
r 0.101083515 _5_ MAC  --- 0 AODV 48 [0 ffffffff 0 800] ------- [0:255 -1:255 30 0] [0x2 1 1 [5 0] [0 4]] (REQUEST)
r 0.101083543 _4_ MAC  --- 0 AODV 48 [0 ffffffff 0 800] ------- [0:255 -1:255 30 0] [0x2 1 1 [5 0] [0 4]] (REQUEST)
r 0.101083552 _1_ MAC  --- 0 AODV 48 [0 ffffffff 0 800] ------- [0:255 -1:255 30 0] [0x2 1 1 [5 0] [0 4]] (REQUEST)
r 0.101083634 _3_ MAC  --- 0 AODV 48 [0 ffffffff 0 800] ------- [0:255 -1:255 30 0] [0x2 1 1 [5 0] [0 4]] (REQUEST)
r 0.101083733 _2_ MAC  --- 0 AODV 48 [0 ffffffff 0 800] ------- [0:255 -1:255 30 0] [0x2 1 1 [5 0] [0 4]] (REQUEST)
r 0.101108515 _5_ RTR  --- 0 AODV 48 [0 ffffffff 0 800] ------- [0:255 -1:255 30 0] [0x2 1 1 [5 0] [0 4]] (REQUEST)
s 0.101108515 _5_ RTR  --- 0 AODV 44 [0 0 0 0] ------- [5:255 0:255 30 0] [0x4 1 [5 4] 10.000000] (REPLY)
r 0.101108543 _4_ RTR  --- 0 AODV 48 [0 ffffffff 0 800] ------- [0:255 -1:255 30 0] [0x2 1 1 [5 0] [0 4]] (REQUEST)
r 0.101108552 _1_ RTR  --- 0 AODV 48 [0 ffffffff 0 800] ------- [0:255 -1:255 30 0] [0x2 1 1 [5 0] [0 4]] (REQUEST)
r 0.101108634 _3_ RTR  --- 0 AODV 48 [0 ffffffff 0 800] ------- [0:255 -1:255 30 0] [0x2 1 1 [5 0] [0 4]] (REQUEST)
r 0.101108733 _2_ RTR  --- 0 AODV 48 [0 ffffffff 0 800] ------- [0:255 -1:255 30 0] [0x2 1 1 [5 0] [0 4]] (REQUEST)
s 0.101203515 _5_ MAC  --- 0 ARP 86 [0 ffffffff 5 806] ------- [REQUEST 5/5 0/0]
r 0.101891544 _4_ MAC  --- 0 ARP 28 [0 ffffffff 5 806] ------- [REQUEST 5/5 0/0]
r 0.101891553 _1_ MAC  --- 0 ARP 28 [0 ffffffff 5 806] ------- [REQUEST 5/5 0/0]
r 0.101891640 _3_ MAC  --- 0 ARP 28 [0 ffffffff 5 806] ------- [REQUEST 5/5 0/0]
r 0.101891746 _2_ MAC  --- 0 ARP 28 [0 ffffffff 5 806] ------- [REQUEST 5/5 0/0]
r 0.101892034 _0_ MAC  --- 0 ARP 28 [0 ffffffff 5 806] ------- [REQUEST 5/5 0/0]
s 0.102082034 _0_ MAC  --- 0 RTS 44 [52e 5 0 0] 
r 0.102434558 _5_ MAC  --- 0 RTS 44 [52e 5 0 0] 
s 0.102444558 _5_ MAC  --- 0 CTS 38 [3f4 0 0 0] 
r 0.102749084 _0_ MAC  --- 0 CTS 38 [3f4 0 0 0] 
s 0.102759084 _0_ MAC  --- 0 ARP 86 [13a 5 0 806] ------- [REPLY 0/0 5/5]
r 0.103447611 _5_ MAC  --- 0 ARP 28 [13a 5 0 806] ------- [REPLY 0/0 5/5]
s 0.103454560 _4_ RTR  --- 0 AODV 48 [0 ffffffff 0 800] ------- [4:255 -1:255 29 0] [0x2 2 1 [5 0] [0 4]] (REQUEST)
s 0.103457611 _5_ MAC  --- 0 ACK 38 [0 0 0 0] 
r 0.103762143 _0_ MAC  --- 0 ACK 38 [0 0 0 0] 
s 0.103971642 _4_ MAC  --- 0 AODV 106 [0 ffffffff 4 800] ------- [4:255 -1:255 29 0] [0x2 2 1 [5 0] [0 4]] (REQUEST)
s 0.104199425 _3_ RTR  --- 0 AODV 48 [0 ffffffff 0 800] ------- [3:255 -1:255 29 0] [0x2 2 1 [5 0] [0 4]] (REQUEST)
r 0.104819651 _1_ MAC  --- 0 AODV 48 [0 ffffffff 4 800] ------- [4:255 -1:255 29 0] [0x2 2 1 [5 0] [0 4]] (REQUEST)
r 0.104819672 _5_ MAC  --- 0 AODV 48 [0 ffffffff 4 800] ------- [4:255 -1:255 29 0] [0x2 2 1 [5 0] [0 4]] (REQUEST)
r 0.104819741 _3_ MAC  --- 0 AODV 48 [0 ffffffff 4 800] ------- [4:255 -1:255 29 0] [0x2 2 1 [5 0] [0 4]] (REQUEST)
r 0.104819849 _2_ MAC  --- 0 AODV 48 [0 ffffffff 4 800] ------- [4:255 -1:255 29 0] [0x2 2 1 [5 0] [0 4]] (REQUEST)
r 0.104820205 _0_ MAC  --- 0 AODV 48 [0 ffffffff 4 800] ------- [4:255 -1:255 29 0] [0x2 2 1 [5 0] [0 4]] (REQUEST)
r 0.104844651 _1_ RTR  --- 0 AODV 48 [0 ffffffff 4 800] ------- [4:255 -1:255 29 0] [0x2 2 1 [5 0] [0 4]] (REQUEST)
r 0.104844672 _5_ RTR  --- 0 AODV 48 [0 ffffffff 4 800] ------- [4:255 -1:255 29 0] [0x2 2 1 [5 0] [0 4]] (REQUEST)
r 0.104844741 _3_ RTR  --- 0 AODV 48 [0 ffffffff 4 800] ------- [4:255 -1:255 29 0] [0x2 2 1 [5 0] [0 4]] (REQUEST)
r 0.104844849 _2_ RTR  --- 0 AODV 48 [0 ffffffff 4 800] ------- [4:255 -1:255 29 0] [0x2 2 1 [5 0] [0 4]] (REQUEST)
r 0.104845205 _0_ RTR  --- 0 AODV 48 [0 ffffffff 4 800] ------- [4:255 -1:255 29 0] [0x2 2 1 [5 0] [0 4]] (REQUEST)
s 0.105109672 _5_ MAC  --- 0 RTS 44 [5ae 0 5 0] 
s 0.105109741 _3_ MAC  --- 0 AODV 106 [0 ffffffff 3 800] ------- [3:255 -1:255 29 0] [0x2 2 1 [5 0] [0 4]] (REQUEST)
D 0.105110405 _0_ MAC  COL 0 RTS 44 [5ae 0 5 0] 
D 0.105957831 _1_ MAC  COL 0 AODV 106 [0 ffffffff 3 800] ------- [3:255 -1:255 29 0] [0x2 2 1 [5 0] [0 4]] (REQUEST)
D 0.105957851 _2_ MAC  COL 0 AODV 106 [0 ffffffff 3 800] ------- [3:255 -1:255 29 0] [0x2 2 1 [5 0] [0 4]] (REQUEST)
D 0.105958405 _0_ MAC  COL 0 AODV 106 [0 ffffffff 3 800] ------- [3:255 -1:255 29 0] [0x2 2 1 [5 0] [0 4]] (REQUEST)
s 0.106411871 _5_ MAC  --- 0 RTS 44 [5ae 0 5 0] 
r 0.106764417 _0_ MAC  --- 0 RTS 44 [5ae 0 5 0] 
s 0.106774417 _0_ MAC  --- 0 CTS 38 [474 5 0 0] 
r 0.107078966 _5_ MAC  --- 0 CTS 38 [474 5 0 0] 
s 0.107088966 _5_ MAC  --- 0 AODV 102 [13a 0 5 800] ------- [5:255 0:255 30 0] [0x4 1 [5 4] 10.000000] (REPLY)
s 0.107497203 _1_ RTR  --- 0 AODV 48 [0 ffffffff 0 800] ------- [1:255 -1:255 29 0] [0x2 2 1 [5 0] [0 4]] (REQUEST)
r 0.107905515 _0_ MAC  --- 0 AODV 44 [13a 0 5 800] ------- [5:255 0:255 30 0] [0x4 1 [5 4] 10.000000] (REPLY)
s 0.107915515 _0_ MAC  --- 0 ACK 38 [0 5 0 0] 
r 0.107930515 _0_ RTR  --- 0 AODV 44 [13a 0 5 800] ------- [5:255 0:255 30 0] [0x4 1 [5 4] 10.000000] (REPLY)
s 0.107930515 _0_ RTR  --- 0 cbr 1020 [0 0 0 0] ------- [0:2 5:0 30 5] [0] 0 0
r 0.108220069 _5_ MAC  --- 0 ACK 38 [0 5 0 0] 
s 0.108469515 _0_ MAC  --- 0 RTS 44 [242e 5 0 0] 
r 0.108822072 _5_ MAC  --- 0 RTS 44 [242e 5 0 0] 
s 0.108832072 _5_ MAC  --- 0 CTS 38 [22f4 0 0 0] 
r 0.109136631 _0_ MAC  --- 0 CTS 38 [22f4 0 0 0] 
s 0.109146631 _0_ MAC  --- 0 cbr 1078 [13a 5 0 800] ------- [0:2 5:0 30 5] [0] 0 0
s 0.109471968 _2_ RTR  --- 0 AODV 48 [0 ffffffff 0 800] ------- [2:255 -1:255 29 0] [0x2 2 1 [5 0] [0 4]] (REQUEST)
r 0.117771191 _5_ MAC  --- 0 cbr 1020 [13a 5 0 800] ------- [0:2 5:0 30 5] [0] 1 0
s 0.117781191 _5_ MAC  --- 0 ACK 38 [0 0 0 0] 
r 0.117796191 _5_ AGT  --- 0 cbr 1020 [13a 5 0 800] ------- [0:2 5:0 30 5] [0] 1 0
r 0.118085796 _0_ MAC  --- 0 ACK 38 [0 0 0 0] 
s 0.118155460 _2_ MAC  --- 0 AODV 106 [0 ffffffff 2 800] ------- [2:255 -1:255 29 0] [0x2 2 1 [5 0] [0 4]] (REQUEST)
r 0.119003584 _3_ MAC  --- 0 AODV 48 [0 ffffffff 2 800] ------- [2:255 -1:255 29 0] [0x2 2 1 [5 0] [0 4]] (REQUEST)
r 0.119003686 _1_ MAC  --- 0 AODV 48 [0 ffffffff 2 800] ------- [2:255 -1:255 29 0] [0x2 2 1 [5 0] [0 4]] (REQUEST)
r 0.119003696 _4_ MAC  --- 0 AODV 48 [0 ffffffff 2 800] ------- [2:255 -1:255 29 0] [0x2 2 1 [5 0] [0 4]] (REQUEST)
r 0.119003731 _5_ MAC  --- 0 AODV 48 [0 ffffffff 2 800] ------- [2:255 -1:255 29 0] [0x2 2 1 [5 0] [0 4]] (REQUEST)
r 0.119028584 _3_ RTR  --- 0 AODV 48 [0 ffffffff 2 800] ------- [2:255 -1:255 29 0] [0x2 2 1 [5 0] [0 4]] (REQUEST)
r 0.119028686 _1_ RTR  --- 0 AODV 48 [0 ffffffff 2 800] ------- [2:255 -1:255 29 0] [0x2 2 1 [5 0] [0 4]] (REQUEST)
r 0.119028696 _4_ RTR  --- 0 AODV 48 [0 ffffffff 2 800] ------- [2:255 -1:255 29 0] [0x2 2 1 [5 0] [0 4]] (REQUEST)
r 0.119028731 _5_ RTR  --- 0 AODV 48 [0 ffffffff 2 800] ------- [2:255 -1:255 29 0] [0x2 2 1 [5 0] [0 4]] (REQUEST)
s 0.119153686 _1_ MAC  --- 0 AODV 106 [0 ffffffff 1 800] ------- [1:255 -1:255 29 0] [0x2 2 1 [5 0] [0 4]] (REQUEST)
r 0.120001696 _4_ MAC  --- 0 AODV 48 [0 ffffffff 1 800] ------- [1:255 -1:255 29 0] [0x2 2 1 [5 0] [0 4]] (REQUEST)
r 0.120001731 _5_ MAC  --- 0 AODV 48 [0 ffffffff 1 800] ------- [1:255 -1:255 29 0] [0x2 2 1 [5 0] [0 4]] (REQUEST)
r 0.120001788 _3_ MAC  --- 0 AODV 48 [0 ffffffff 1 800] ------- [1:255 -1:255 29 0] [0x2 2 1 [5 0] [0 4]] (REQUEST)
r 0.120001913 _2_ MAC  --- 0 AODV 48 [0 ffffffff 1 800] ------- [1:255 -1:255 29 0] [0x2 2 1 [5 0] [0 4]] (REQUEST)
r 0.120002341 _0_ MAC  --- 0 AODV 48 [0 ffffffff 1 800] ------- [1:255 -1:255 29 0] [0x2 2 1 [5 0] [0 4]] (REQUEST)
r 0.120026696 _4_ RTR  --- 0 AODV 48 [0 ffffffff 1 800] ------- [1:255 -1:255 29 0] [0x2 2 1 [5 0] [0 4]] (REQUEST)
r 0.120026731 _5_ RTR  --- 0 AODV 48 [0 ffffffff 1 800] ------- [1:255 -1:255 29 0] [0x2 2 1 [5 0] [0 4]] (REQUEST)
r 0.120026788 _3_ RTR  --- 0 AODV 48 [0 ffffffff 1 800] ------- [1:255 -1:255 29 0] [0x2 2 1 [5 0] [0 4]] (REQUEST)
r 0.120026913 _2_ RTR  --- 0 AODV 48 [0 ffffffff 1 800] ------- [1:255 -1:255 29 0] [0x2 2 1 [5 0] [0 4]] (REQUEST)
r 0.120027341 _0_ RTR  --- 0 AODV 48 [0 ffffffff 1 800] ------- [1:255 -1:255 29 0] [0x2 2 1 [5 0] [0 4]] (REQUEST)
s 0.130000000 _0_ AGT  --- 1 cbr 1000 [0 0 0 0] ------- [0:2 5:0 32 0] [1] 0 0
r 0.130000000 _0_ RTR  --- 1 cbr 1000 [0 0 0 0] ------- [0:2 5:0 32 0] [1] 0 0
s 0.130000000 _0_ RTR  --- 1 cbr 1020 [0 0 0 0] ------- [0:2 5:0 30 5] [1] 0 0
s 0.130655000 _0_ MAC  --- 0 RTS 44 [242e 5 0 0] 
r 0.131007671 _5_ MAC  --- 0 RTS 44 [242e 5 0 0] 
s 0.131017671 _5_ MAC  --- 0 CTS 38 [22f4 0 0 0] 
r 0.131322343 _0_ MAC  --- 0 CTS 38 [22f4 0 0 0] 
s 0.131332343 _0_ MAC  --- 1 cbr 1078 [13a 5 0 800] ------- [0:2 5:0 30 5] [1] 0 0
r 0.139957017 _5_ MAC  --- 1 cbr 1020 [13a 5 0 800] ------- [0:2 5:0 30 5] [1] 1 0
s 0.139967017 _5_ MAC  --- 0 ACK 38 [0 0 0 0] 
r 0.139982017 _5_ AGT  --- 1 cbr 1020 [13a 5 0 800] ------- [0:2 5:0 30 5] [1] 1 0
r 0.140271736 _0_ MAC  --- 0 ACK 38 [0 0 0 0] 
s 0.160000000 _0_ AGT  --- 2 cbr 1000 [0 0 0 0] ------- [0:2 5:0 32 0] [2] 0 0
r 0.160000000 _0_ RTR  --- 2 cbr 1000 [0 0 0 0] ------- [0:2 5:0 32 0] [2] 0 0
s 0.160000000 _0_ RTR  --- 2 cbr 1020 [0 0 0 0] ------- [0:2 5:0 30 5] [2] 0 0
s 0.160615000 _0_ MAC  --- 0 RTS 44 [242e 5 0 0] 
r 0.160967803 _5_ MAC  --- 0 RTS 44 [242e 5 0 0] 
s 0.160977803 _5_ MAC  --- 0 CTS 38 [22f4 0 0 0] 
r 0.161282607 _0_ MAC  --- 0 CTS 38 [22f4 0 0 0] 
s 0.161292607 _0_ MAC  --- 2 cbr 1078 [13a 5 0 800] ------- [0:2 5:0 30 5] [2] 0 0
r 0.169917412 _5_ MAC  --- 2 cbr 1020 [13a 5 0 800] ------- [0:2 5:0 30 5] [2] 1 0
s 0.169927412 _5_ MAC  --- 0 ACK 38 [0 0 0 0] 
r 0.169942412 _5_ AGT  --- 2 cbr 1020 [13a 5 0 800] ------- [0:2 5:0 30 5] [2] 1 0
s 0.170786255 _0_ MAC  --- 0 RTS 44 [242e 5 0 0] 
s 0.171746255 _0_ MAC  --- 0 RTS 44 [242e 5 0 0] 
s 0.173346255 _0_ MAC  --- 0 RTS 44 [242e 5 0 0] 
s 0.181206255 _0_ MAC  --- 0 RTS 44 [242e 5 0 0] 
s 0.188886255 _0_ MAC  --- 0 RTS 44 [242e 5 0 0] 
s 0.190000000 _0_ AGT  --- 3 cbr 1000 [0 0 0 0] ------- [0:2 5:0 32 0] [3] 0 0
r 0.190000000 _0_ RTR  --- 3 cbr 1000 [0 0 0 0] ------- [0:2 5:0 32 0] [3] 0 0
s 0.190000000 _0_ RTR  --- 3 cbr 1020 [0 0 0 0] ------- [0:2 5:0 30 5] [3] 0 0
s 0.198986255 _0_ MAC  --- 0 RTS 44 [242e 5 0 0] 
s 0.213006255 _0_ MAC  --- 0 RTS 44 [242e 5 0 0] 
D 0.213676255 _0_ MAC  RET 0 RTS 44 [242e 5 0 0] 
D 0.213676255 _0_ RTR  CBK 2 cbr 1020 [13a 5 0 800] ------- [0:2 5:0 30 5] [2] 0 0
D 0.213676255 _0_ RTR  CBK 3 cbr 1020 [0 5 0 800] ------- [0:2 5:0 30 5] [3] 0 0
D 0.213676255 _0_ MAC  RET 2 cbr 1020 [13a 5 0 800] ------- [0:2 5:0 30 5] [2] 0 0
s 0.213676255 _0_ RTR  --- 0 AODV 32 [0 0 0 0] ------- [0:255 -1:255 1 0] [0x8 1 [5 0] 0.000000] (ERROR)
s 0.213951255 _0_ MAC  --- 0 AODV 90 [0 ffffffff 0 800] ------- [0:255 -1:255 1 0] [0x8 1 [5 0] 0.000000] (ERROR)
r 0.214672089 _4_ MAC  --- 0 AODV 32 [0 ffffffff 0 800] ------- [0:255 -1:255 1 0] [0x8 1 [5 0] 0.000000] (ERROR)
r 0.214697089 _4_ RTR  --- 0 AODV 32 [0 ffffffff 0 800] ------- [0:255 -1:255 1 0] [0x8 1 [5 0] 0.000000] (ERROR)
s 0.220000000 _0_ AGT  --- 4 cbr 1000 [0 0 0 0] ------- [0:2 5:0 32 0] [4] 0 0
r 0.220000000 _0_ RTR  --- 4 cbr 1000 [0 0 0 0] ------- [0:2 5:0 32 0] [4] 0 0
s 0.220000000 _0_ RTR  --- 0 AODV 48 [0 0 0 0] ------- [0:255 -1:255 3 0] [0x2 1 2 [5 5] [0 8]] (REQUEST)
s 0.220595000 _0_ MAC  --- 0 AODV 106 [0 ffffffff 0 800] ------- [0:255 -1:255 3 0] [0x2 1 2 [5 5] [0 8]] (REQUEST)
r 0.221443833 _4_ MAC  --- 0 AODV 48 [0 ffffffff 0 800] ------- [0:255 -1:255 3 0] [0x2 1 2 [5 5] [0 8]] (REQUEST)
r 0.221468833 _4_ RTR  --- 0 AODV 48 [0 ffffffff 0 800] ------- [0:255 -1:255 3 0] [0x2 1 2 [5 5] [0 8]] (REQUEST)
s 0.230382312 _4_ RTR  --- 0 AODV 48 [0 ffffffff 0 800] ------- [4:255 -1:255 2 0] [0x2 2 2 [5 5] [0 8]] (REQUEST)
s 0.231037312 _4_ MAC  --- 0 AODV 106 [0 ffffffff 4 800] ------- [4:255 -1:255 2 0] [0x2 2 2 [5 5] [0 8]] (REQUEST)
r 0.231885328 _1_ MAC  --- 0 AODV 48 [0 ffffffff 4 800] ------- [4:255 -1:255 2 0] [0x2 2 2 [5 5] [0 8]] (REQUEST)
r 0.231885478 _3_ MAC  --- 0 AODV 48 [0 ffffffff 4 800] ------- [4:255 -1:255 2 0] [0x2 2 2 [5 5] [0 8]] (REQUEST)
r 0.231885645 _2_ MAC  --- 0 AODV 48 [0 ffffffff 4 800] ------- [4:255 -1:255 2 0] [0x2 2 2 [5 5] [0 8]] (REQUEST)
r 0.231886052 _5_ MAC  --- 0 AODV 48 [0 ffffffff 4 800] ------- [4:255 -1:255 2 0] [0x2 2 2 [5 5] [0 8]] (REQUEST)
r 0.231886145 _0_ MAC  --- 0 AODV 48 [0 ffffffff 4 800] ------- [4:255 -1:255 2 0] [0x2 2 2 [5 5] [0 8]] (REQUEST)
r 0.231910328 _1_ RTR  --- 0 AODV 48 [0 ffffffff 4 800] ------- [4:255 -1:255 2 0] [0x2 2 2 [5 5] [0 8]] (REQUEST)
r 0.231910478 _3_ RTR  --- 0 AODV 48 [0 ffffffff 4 800] ------- [4:255 -1:255 2 0] [0x2 2 2 [5 5] [0 8]] (REQUEST)
r 0.231910645 _2_ RTR  --- 0 AODV 48 [0 ffffffff 4 800] ------- [4:255 -1:255 2 0] [0x2 2 2 [5 5] [0 8]] (REQUEST)
r 0.231911052 _5_ RTR  --- 0 AODV 48 [0 ffffffff 4 800] ------- [4:255 -1:255 2 0] [0x2 2 2 [5 5] [0 8]] (REQUEST)
s 0.231911052 _5_ RTR  --- 0 AODV 44 [0 0 0 0] ------- [5:255 0:255 30 4] [0x4 1 [5 6] 10.000000] (REPLY)
r 0.231911145 _0_ RTR  --- 0 AODV 48 [0 ffffffff 4 800] ------- [4:255 -1:255 2 0] [0x2 2 2 [5 5] [0 8]] (REQUEST)
s 0.232018412 _1_ RTR  --- 0 AODV 48 [0 ffffffff 4 800] ------- [1:255 -1:255 1 0] [0x2 3 2 [5 5] [0 8]] (REQUEST)
s 0.232246052 _5_ MAC  --- 0 ARP 86 [0 ffffffff 5 806] ------- [REQUEST 5/5 0/4]
r 0.232934804 _4_ MAC  --- 0 ARP 28 [0 ffffffff 5 806] ------- [REQUEST 5/5 0/4]
r 0.232934814 _1_ MAC  --- 0 ARP 28 [0 ffffffff 5 806] ------- [REQUEST 5/5 0/4]
s 0.233024814 _1_ MAC  --- 0 AODV 106 [0 ffffffff 1 800] ------- [1:255 -1:255 1 0] [0x2 3 2 [5 5] [0 8]] (REQUEST)
r 0.233872831 _4_ MAC  --- 0 AODV 48 [0 ffffffff 1 800] ------- [1:255 -1:255 1 0] [0x2 3 2 [5 5] [0 8]] (REQUEST)
r 0.233872964 _3_ MAC  --- 0 AODV 48 [0 ffffffff 1 800] ------- [1:255 -1:255 1 0] [0x2 3 2 [5 5] [0 8]] (REQUEST)
r 0.233873131 _2_ MAC  --- 0 AODV 48 [0 ffffffff 1 800] ------- [1:255 -1:255 1 0] [0x2 3 2 [5 5] [0 8]] (REQUEST)
r 0.233873584 _5_ MAC  --- 0 AODV 48 [0 ffffffff 1 800] ------- [1:255 -1:255 1 0] [0x2 3 2 [5 5] [0 8]] (REQUEST)
r 0.233897831 _4_ RTR  --- 0 AODV 48 [0 ffffffff 1 800] ------- [1:255 -1:255 1 0] [0x2 3 2 [5 5] [0 8]] (REQUEST)
r 0.233897964 _3_ RTR  --- 0 AODV 48 [0 ffffffff 1 800] ------- [1:255 -1:255 1 0] [0x2 3 2 [5 5] [0 8]] (REQUEST)
r 0.233898131 _2_ RTR  --- 0 AODV 48 [0 ffffffff 1 800] ------- [1:255 -1:255 1 0] [0x2 3 2 [5 5] [0 8]] (REQUEST)
r 0.233898584 _5_ RTR  --- 0 AODV 48 [0 ffffffff 1 800] ------- [1:255 -1:255 1 0] [0x2 3 2 [5 5] [0 8]] (REQUEST)
s 0.234382831 _4_ MAC  --- 0 RTS 44 [52e 5 4 0] 
r 0.234735604 _5_ MAC  --- 0 RTS 44 [52e 5 4 0] 
s 0.234745604 _5_ MAC  --- 0 CTS 38 [3f4 4 0 0] 
r 0.235050382 _4_ MAC  --- 0 CTS 38 [3f4 4 0 0] 
s 0.235060382 _4_ MAC  --- 0 ARP 86 [13a 5 4 806] ------- [REPLY 4/4 5/5]
s 0.235267272 _2_ RTR  --- 0 AODV 48 [0 ffffffff 4 800] ------- [2:255 -1:255 1 0] [0x2 3 2 [5 5] [0 8]] (REQUEST)
r 0.235749162 _5_ MAC  --- 0 ARP 28 [13a 5 4 806] ------- [REPLY 4/4 5/5]
s 0.235759162 _5_ MAC  --- 0 ACK 38 [0 4 0 0] 
r 0.236063949 _4_ MAC  --- 0 ACK 38 [0 4 0 0] 
s 0.236433162 _5_ MAC  --- 0 RTS 44 [5ae 4 5 0] 
r 0.236785956 _4_ MAC  --- 0 RTS 44 [5ae 4 5 0] 
s 0.236795956 _4_ MAC  --- 0 CTS 38 [474 5 0 0] 
r 0.237100754 _5_ MAC  --- 0 CTS 38 [474 5 0 0] 
s 0.237110754 _5_ MAC  --- 0 AODV 102 [13a 4 5 800] ------- [5:255 0:255 30 4] [0x4 1 [5 6] 10.000000] (REPLY)
s 0.237860752 _3_ RTR  --- 0 AODV 48 [0 ffffffff 4 800] ------- [3:255 -1:255 1 0] [0x2 3 2 [5 5] [0 8]] (REQUEST)
r 0.237927554 _4_ MAC  --- 0 AODV 44 [13a 4 5 800] ------- [5:255 0:255 30 4] [0x4 1 [5 6] 10.000000] (REPLY)
s 0.237937554 _4_ MAC  --- 0 ACK 38 [0 5 0 0] 
r 0.237952554 _4_ RTR  --- 0 AODV 44 [13a 4 5 800] ------- [5:255 0:255 30 4] [0x4 1 [5 6] 10.000000] (REPLY)
f 0.237952554 _4_ RTR  --- 0 AODV 44 [13a 4 5 800] ------- [5:255 0:255 29 0] [0x4 2 [5 6] 10.000000] (REPLY)
r 0.238242363 _5_ MAC  --- 0 ACK 38 [0 5 0 0] 
s 0.238371554 _4_ MAC  --- 0 ARP 86 [0 ffffffff 4 806] ------- [REQUEST 4/4 0/0]
r 0.239059571 _1_ MAC  --- 0 ARP 28 [0 ffffffff 4 806] ------- [REQUEST 4/4 0/0]
r 0.239059721 _3_ MAC  --- 0 ARP 28 [0 ffffffff 4 806] ------- [REQUEST 4/4 0/0]
r 0.239059888 _2_ MAC  --- 0 ARP 28 [0 ffffffff 4 806] ------- [REQUEST 4/4 0/0]
r 0.239060368 _5_ MAC  --- 0 ARP 28 [0 ffffffff 4 806] ------- [REQUEST 4/4 0/0]
r 0.239060388 _0_ MAC  --- 0 ARP 28 [0 ffffffff 4 806] ------- [REQUEST 4/4 0/0]
s 0.239309721 _3_ MAC  --- 0 AODV 106 [0 ffffffff 3 800] ------- [3:255 -1:255 1 0] [0x2 3 2 [5 5] [0 8]] (REQUEST)
s 0.239309888 _2_ MAC  --- 0 AODV 106 [0 ffffffff 2 800] ------- [2:255 -1:255 1 0] [0x2 3 2 [5 5] [0 8]] (REQUEST)
D 0.239310204 _1_ MAC  COL 0 AODV 106 [0 ffffffff 3 800] ------- [3:255 -1:255 1 0] [0x2 3 2 [5 5] [0 8]] (REQUEST)
D 0.239310221 _4_ MAC  COL 0 AODV 106 [0 ffffffff 3 800] ------- [3:255 -1:255 1 0] [0x2 3 2 [5 5] [0 8]] (REQUEST)
D 0.240158204 _1_ MAC  COL 0 AODV 106 [0 ffffffff 2 800] ------- [2:255 -1:255 1 0] [0x2 3 2 [5 5] [0 8]] (REQUEST)
D 0.240158221 _4_ MAC  COL 0 AODV 106 [0 ffffffff 2 800] ------- [2:255 -1:255 1 0] [0x2 3 2 [5 5] [0 8]] (REQUEST)
s 0.240632955 _0_ MAC  --- 0 RTS 44 [52e 4 0 0] 
r 0.240985788 _4_ MAC  --- 0 RTS 44 [52e 4 0 0] 
s 0.240995788 _4_ MAC  --- 0 CTS 38 [3f4 0 0 0] 
r 0.241300622 _0_ MAC  --- 0 CTS 38 [3f4 0 0 0] 
s 0.241310622 _0_ MAC  --- 0 ARP 86 [13a 4 0 806] ------- [REPLY 0/0 4/4]
r 0.241999455 _4_ MAC  --- 0 ARP 28 [13a 4 0 806] ------- [REPLY 0/0 4/4]
s 0.242009455 _4_ MAC  --- 0 ACK 38 [0 0 0 0] 
r 0.242314288 _0_ MAC  --- 0 ACK 38 [0 0 0 0] 
s 0.242383455 _4_ MAC  --- 0 RTS 44 [5ae 0 4 0] 
r 0.242736288 _0_ MAC  --- 0 RTS 44 [5ae 0 4 0] 
s 0.242746288 _0_ MAC  --- 0 CTS 38 [474 4 0 0] 
r 0.243051122 _4_ MAC  --- 0 CTS 38 [474 4 0 0] 
s 0.243061122 _4_ MAC  --- 0 AODV 102 [13a 0 4 800] ------- [5:255 0:255 29 0] [0x4 2 [5 6] 10.000000] (REPLY)
r 0.243877955 _0_ MAC  --- 0 AODV 44 [13a 0 4 800] ------- [5:255 0:255 29 0] [0x4 2 [5 6] 10.000000] (REPLY)
s 0.243887955 _0_ MAC  --- 0 ACK 38 [0 4 0 0] 
r 0.243902955 _0_ RTR  --- 0 AODV 44 [13a 0 4 800] ------- [5:255 0:255 29 0] [0x4 2 [5 6] 10.000000] (REPLY)
s 0.243902955 _0_ RTR  --- 4 cbr 1020 [0 0 0 0] ------- [0:2 5:0 30 4] [4] 0 0
r 0.244192788 _4_ MAC  --- 0 ACK 38 [0 4 0 0] 
s 0.244721955 _0_ MAC  --- 0 RTS 44 [242e 4 0 0] 
r 0.245074788 _4_ MAC  --- 0 RTS 44 [242e 4 0 0] 
s 0.245084788 _4_ MAC  --- 0 CTS 38 [22f4 0 0 0] 
r 0.245389622 _0_ MAC  --- 0 CTS 38 [22f4 0 0 0] 
s 0.245399622 _0_ MAC  --- 4 cbr 1078 [13a 4 0 800] ------- [0:2 5:0 30 4] [4] 0 0
s 0.250000000 _0_ AGT  --- 5 cbr 1000 [0 0 0 0] ------- [0:2 5:0 32 0] [5] 0 0
r 0.250000000 _0_ RTR  --- 5 cbr 1000 [0 0 0 0] ------- [0:2 5:0 32 0] [5] 0 0
s 0.250000000 _0_ RTR  --- 5 cbr 1020 [0 0 0 0] ------- [0:2 5:0 30 4] [5] 0 0
r 0.254024455 _4_ MAC  --- 4 cbr 1020 [13a 4 0 800] ------- [0:2 5:0 30 4] [4] 1 0
s 0.254034455 _4_ MAC  --- 0 ACK 38 [0 0 0 0] 
r 0.254049455 _4_ RTR  --- 4 cbr 1020 [13a 4 0 800] ------- [0:2 5:0 30 4] [4] 1 0
f 0.254049455 _4_ RTR  --- 4 cbr 1020 [13a 4 0 800] ------- [0:2 5:0 29 5] [4] 1 0
r 0.254339288 _0_ MAC  --- 0 ACK 38 [0 0 0 0] 
s 0.254508455 _4_ MAC  --- 0 RTS 44 [242e 5 4 0] 
r 0.254861288 _5_ MAC  --- 0 RTS 44 [242e 5 4 0] 
s 0.254871288 _5_ MAC  --- 0 CTS 38 [22f4 4 0 0] 
r 0.255176122 _4_ MAC  --- 0 CTS 38 [22f4 4 0 0] 
s 0.255186122 _4_ MAC  --- 4 cbr 1078 [13a 5 4 800] ------- [0:2 5:0 29 5] [4] 1 0
r 0.263810955 _5_ MAC  --- 4 cbr 1020 [13a 5 4 800] ------- [0:2 5:0 29 5] [4] 2 0
s 0.263820955 _5_ MAC  --- 0 ACK 38 [0 4 0 0] 
r 0.263835955 _5_ AGT  --- 4 cbr 1020 [13a 5 4 800] ------- [0:2 5:0 29 5] [4] 2 0
r 0.264125788 _4_ MAC  --- 0 ACK 38 [0 4 0 0] 
s 0.264720288 _0_ MAC  --- 0 RTS 44 [242e 4 0 0] 
r 0.265073122 _4_ MAC  --- 0 RTS 44 [242e 4 0 0] 
s 0.265083122 _4_ MAC  --- 0 CTS 38 [22f4 0 0 0] 
r 0.265387955 _0_ MAC  --- 0 CTS 38 [22f4 0 0 0] 
s 0.265397955 _0_ MAC  --- 5 cbr 1078 [13a 4 0 800] ------- [0:2 5:0 30 4] [5] 0 0
r 0.274022788 _4_ MAC  --- 5 cbr 1020 [13a 4 0 800] ------- [0:2 5:0 30 4] [5] 1 0
s 0.274032788 _4_ MAC  --- 0 ACK 38 [0 0 0 0] 
r 0.274047788 _4_ RTR  --- 5 cbr 1020 [13a 4 0 800] ------- [0:2 5:0 30 4] [5] 1 0
f 0.274047788 _4_ RTR  --- 5 cbr 1020 [13a 4 0 800] ------- [0:2 5:0 29 5] [5] 1 0
r 0.274337622 _0_ MAC  --- 0 ACK 38 [0 0 0 0] 
s 0.274846788 _4_ MAC  --- 0 RTS 44 [242e 5 4 0] 
r 0.275199622 _5_ MAC  --- 0 RTS 44 [242e 5 4 0] 
s 0.275209622 _5_ MAC  --- 0 CTS 38 [22f4 4 0 0] 
r 0.275514455 _4_ MAC  --- 0 CTS 38 [22f4 4 0 0] 
s 0.275524455 _4_ MAC  --- 5 cbr 1078 [13a 5 4 800] ------- [0:2 5:0 29 5] [5] 1 0
s 0.280000000 _0_ AGT  --- 6 cbr 1000 [0 0 0 0] ------- [0:2 5:0 32 0] [6] 0 0
r 0.280000000 _0_ RTR  --- 6 cbr 1000 [0 0 0 0] ------- [0:2 5:0 32 0] [6] 0 0
s 0.280000000 _0_ RTR  --- 6 cbr 1020 [0 0 0 0] ------- [0:2 5:0 30 4] [6] 0 0
r 0.284149288 _5_ MAC  --- 5 cbr 1020 [13a 5 4 800] ------- [0:2 5:0 29 5] [5] 2 0
s 0.284159288 _5_ MAC  --- 0 ACK 38 [0 4 0 0] 
r 0.284174288 _5_ AGT  --- 5 cbr 1020 [13a 5 4 800] ------- [0:2 5:0 29 5] [5] 2 0
r 0.284464122 _4_ MAC  --- 0 ACK 38 [0 4 0 0] 
s 0.285078622 _0_ MAC  --- 0 RTS 44 [242e 4 0 0] 
r 0.285431455 _4_ MAC  --- 0 RTS 44 [242e 4 0 0] 
s 0.285441455 _4_ MAC  --- 0 CTS 38 [22f4 0 0 0] 
r 0.285746288 _0_ MAC  --- 0 CTS 38 [22f4 0 0 0] 
s 0.285756288 _0_ MAC  --- 6 cbr 1078 [13a 4 0 800] ------- [0:2 5:0 30 4] [6] 0 0
r 0.294381122 _4_ MAC  --- 6 cbr 1020 [13a 4 0 800] ------- [0:2 5:0 30 4] [6] 1 0
s 0.294391122 _4_ MAC  --- 0 ACK 38 [0 0 0 0] 
r 0.294406122 _4_ RTR  --- 6 cbr 1020 [13a 4 0 800] ------- [0:2 5:0 30 4] [6] 1 0
f 0.294406122 _4_ RTR  --- 6 cbr 1020 [13a 4 0 800] ------- [0:2 5:0 29 5] [6] 1 0
r 0.294695955 _0_ MAC  --- 0 ACK 38 [0 0 0 0] 
s 0.294825122 _4_ MAC  --- 0 RTS 44 [242e 5 4 0] 
r 0.295177955 _5_ MAC  --- 0 RTS 44 [242e 5 4 0] 
s 0.295187955 _5_ MAC  --- 0 CTS 38 [22f4 4 0 0] 
r 0.295492788 _4_ MAC  --- 0 CTS 38 [22f4 4 0 0] 
s 0.295502788 _4_ MAC  --- 6 cbr 1078 [13a 5 4 800] ------- [0:2 5:0 29 5] [6] 1 0
r 0.304127622 _5_ MAC  --- 6 cbr 1020 [13a 5 4 800] ------- [0:2 5:0 29 5] [6] 2 0
s 0.304137622 _5_ MAC  --- 0 ACK 38 [0 4 0 0] 
r 0.304152622 _5_ AGT  --- 6 cbr 1020 [13a 5 4 800] ------- [0:2 5:0 29 5] [6] 2 0
r 0.304442455 _4_ MAC  --- 0 ACK 38 [0 4 0 0] 
s 0.310000000 _0_ AGT  --- 7 cbr 1000 [0 0 0 0] ------- [0:2 5:0 32 0] [7] 0 0
r 0.310000000 _0_ RTR  --- 7 cbr 1000 [0 0 0 0] ------- [0:2 5:0 32 0] [7] 0 0
s 0.310000000 _0_ RTR  --- 7 cbr 1020 [0 0 0 0] ------- [0:2 5:0 30 4] [7] 0 0
s 0.310135000 _0_ MAC  --- 0 RTS 44 [242e 4 0 0] 
r 0.310487833 _4_ MAC  --- 0 RTS 44 [242e 4 0 0] 
s 0.310497833 _4_ MAC  --- 0 CTS 38 [22f4 0 0 0] 
r 0.310802667 _0_ MAC  --- 0 CTS 38 [22f4 0 0 0] 
s 0.310812667 _0_ MAC  --- 7 cbr 1078 [13a 4 0 800] ------- [0:2 5:0 30 4] [7] 0 0
r 0.319437500 _4_ MAC  --- 7 cbr 1020 [13a 4 0 800] ------- [0:2 5:0 30 4] [7] 1 0
s 0.319447500 _4_ MAC  --- 0 ACK 38 [0 0 0 0] 
r 0.319462500 _4_ RTR  --- 7 cbr 1020 [13a 4 0 800] ------- [0:2 5:0 30 4] [7] 1 0
f 0.319462500 _4_ RTR  --- 7 cbr 1020 [13a 4 0 800] ------- [0:2 5:0 29 5] [7] 1 0
r 0.319752333 _0_ MAC  --- 0 ACK 38 [0 0 0 0] 
s 0.320141500 _4_ MAC  --- 0 RTS 44 [242e 5 4 0] 
r 0.320494333 _5_ MAC  --- 0 RTS 44 [242e 5 4 0] 
s 0.320504333 _5_ MAC  --- 0 CTS 38 [22f4 4 0 0] 
r 0.320809167 _4_ MAC  --- 0 CTS 38 [22f4 4 0 0] 
s 0.320819167 _4_ MAC  --- 7 cbr 1078 [13a 5 4 800] ------- [0:2 5:0 29 5] [7] 1 0
r 0.329444000 _5_ MAC  --- 7 cbr 1020 [13a 5 4 800] ------- [0:2 5:0 29 5] [7] 2 0
s 0.329454000 _5_ MAC  --- 0 ACK 38 [0 4 0 0] 
r 0.329469000 _5_ AGT  --- 7 cbr 1020 [13a 5 4 800] ------- [0:2 5:0 29 5] [7] 2 0
r 0.329758833 _4_ MAC  --- 0 ACK 38 [0 4 0 0] 
M 0.33000 1 (400.00, 245.00, 0.00), (400.00, 400.00), 1000.00
M 0.33000 4 (400.00, 250.00, 0.00), (600.00, 600.00), 1000.00
s 0.340000000 _0_ AGT  --- 8 cbr 1000 [0 0 0 0] ------- [0:2 5:0 32 0] [8] 0 0
r 0.340000000 _0_ RTR  --- 8 cbr 1000 [0 0 0 0] ------- [0:2 5:0 32 0] [8] 0 0
s 0.340000000 _0_ RTR  --- 8 cbr 1020 [0 0 0 0] ------- [0:2 5:0 30 4] [8] 0 0
s 0.340135000 _0_ MAC  --- 0 RTS 44 [242e 4 0 0] 
r 0.340487830 _4_ MAC  --- 0 RTS 44 [242e 4 0 0] 
s 0.340497830 _4_ MAC  --- 0 CTS 38 [22f4 0 0 0] 
r 0.340802660 _0_ MAC  --- 0 CTS 38 [22f4 0 0 0] 
s 0.340812660 _0_ MAC  --- 8 cbr 1078 [13a 4 0 800] ------- [0:2 5:0 30 4] [8] 0 0
r 0.349437489 _4_ MAC  --- 8 cbr 1020 [13a 4 0 800] ------- [0:2 5:0 30 4] [8] 1 0
s 0.349447489 _4_ MAC  --- 0 ACK 38 [0 0 0 0] 
r 0.349462489 _4_ RTR  --- 8 cbr 1020 [13a 4 0 800] ------- [0:2 5:0 30 4] [8] 1 0
f 0.349462489 _4_ RTR  --- 8 cbr 1020 [13a 4 0 800] ------- [0:2 5:0 29 5] [8] 1 0
r 0.349752317 _0_ MAC  --- 0 ACK 38 [0 0 0 0] 
s 0.350381489 _4_ MAC  --- 0 RTS 44 [242e 5 4 0] 
r 0.350734261 _5_ MAC  --- 0 RTS 44 [242e 5 4 0] 
s 0.350744261 _5_ MAC  --- 0 CTS 38 [22f4 4 0 0] 
r 0.351049031 _4_ MAC  --- 0 CTS 38 [22f4 4 0 0] 
s 0.351059031 _4_ MAC  --- 8 cbr 1078 [13a 5 4 800] ------- [0:2 5:0 29 5] [8] 1 0
r 0.359683800 _5_ MAC  --- 8 cbr 1020 [13a 5 4 800] ------- [0:2 5:0 29 5] [8] 2 0
s 0.359693800 _5_ MAC  --- 0 ACK 38 [0 4 0 0] 
r 0.359708800 _5_ AGT  --- 8 cbr 1020 [13a 5 4 800] ------- [0:2 5:0 29 5] [8] 2 0
r 0.359998544 _4_ MAC  --- 0 ACK 38 [0 4 0 0] 
s 0.370000000 _0_ AGT  --- 9 cbr 1000 [0 0 0 0] ------- [0:2 5:0 32 0] [9] 0 0
r 0.370000000 _0_ RTR  --- 9 cbr 1000 [0 0 0 0] ------- [0:2 5:0 32 0] [9] 0 0
s 0.370000000 _0_ RTR  --- 9 cbr 1020 [0 0 0 0] ------- [0:2 5:0 30 4] [9] 0 0
s 0.370515000 _0_ MAC  --- 0 RTS 44 [242e 4 0 0] 
r 0.370867828 _4_ MAC  --- 0 RTS 44 [242e 4 0 0] 
s 0.370877828 _4_ MAC  --- 0 CTS 38 [22f4 0 0 0] 
r 0.371182655 _0_ MAC  --- 0 CTS 38 [22f4 0 0 0] 
s 0.371192655 _0_ MAC  --- 9 cbr 1078 [13a 4 0 800] ------- [0:2 5:0 30 4] [9] 0 0
r 0.379817483 _4_ MAC  --- 9 cbr 1020 [13a 4 0 800] ------- [0:2 5:0 30 4] [9] 1 0
s 0.379827483 _4_ MAC  --- 0 ACK 38 [0 0 0 0] 
r 0.379842483 _4_ RTR  --- 9 cbr 1020 [13a 4 0 800] ------- [0:2 5:0 30 4] [9] 1 0
f 0.379842483 _4_ RTR  --- 9 cbr 1020 [13a 4 0 800] ------- [0:2 5:0 29 5] [9] 1 0
r 0.380132312 _0_ MAC  --- 0 ACK 38 [0 0 0 0] 
s 0.380721483 _4_ MAC  --- 0 RTS 44 [242e 5 4 0] 
r 0.381074164 _5_ MAC  --- 0 RTS 44 [242e 5 4 0] 
s 0.381084164 _5_ MAC  --- 0 CTS 38 [22f4 4 0 0] 
r 0.381388845 _4_ MAC  --- 0 CTS 38 [22f4 4 0 0] 
s 0.381398845 _4_ MAC  --- 9 cbr 1078 [13a 5 4 800] ------- [0:2 5:0 29 5] [9] 1 0
r 0.390023524 _5_ MAC  --- 9 cbr 1020 [13a 5 4 800] ------- [0:2 5:0 29 5] [9] 2 0
s 0.390033524 _5_ MAC  --- 0 ACK 38 [0 4 0 0] 
r 0.390048524 _5_ AGT  --- 9 cbr 1020 [13a 5 4 800] ------- [0:2 5:0 29 5] [9] 2 0
r 0.390338179 _4_ MAC  --- 0 ACK 38 [0 4 0 0] 
s 0.400000000 _0_ AGT  --- 10 cbr 1000 [0 0 0 0] ------- [0:2 5:0 32 0] [10] 0 0
r 0.400000000 _0_ RTR  --- 10 cbr 1000 [0 0 0 0] ------- [0:2 5:0 32 0] [10] 0 0
s 0.400000000 _0_ RTR  --- 10 cbr 1020 [0 0 0 0] ------- [0:2 5:0 30 4] [10] 0 0
s 0.400375000 _0_ MAC  --- 0 RTS 44 [242e 4 0 0] 
s 0.401415000 _0_ MAC  --- 0 RTS 44 [242e 4 0 0] 
s 0.402155000 _0_ MAC  --- 0 RTS 44 [242e 4 0 0] 
s 0.407355000 _0_ MAC  --- 0 RTS 44 [242e 4 0 0] 
s 0.409275000 _0_ MAC  --- 0 RTS 44 [242e 4 0 0] 
s 0.413895000 _0_ MAC  --- 0 RTS 44 [242e 4 0 0] 
s 0.423455000 _0_ MAC  --- 0 RTS 44 [242e 4 0 0] 
D 0.424125000 _0_ MAC  RET 0 RTS 44 [242e 4 0 0] 
D 0.424125000 _0_ RTR  CBK 10 cbr 1020 [13a 4 0 800] ------- [0:2 5:0 30 4] [10] 0 0
D 0.424125000 _0_ MAC  RET 10 cbr 1020 [13a 4 0 800] ------- [0:2 5:0 30 4] [10] 0 0
s 0.424125000 _0_ RTR  --- 0 AODV 32 [0 0 0 0] ------- [0:255 -1:255 1 0] [0x8 1 [5 0] 0.000000] (ERROR)
s 0.424640000 _0_ MAC  --- 0 AODV 90 [0 ffffffff 0 800] ------- [0:255 -1:255 1 0] [0x8 1 [5 0] 0.000000] (ERROR)
r 0.425360696 _1_ MAC  --- 0 AODV 32 [0 ffffffff 0 800] ------- [0:255 -1:255 1 0] [0x8 1 [5 0] 0.000000] (ERROR)
r 0.425385696 _1_ RTR  --- 0 AODV 32 [0 ffffffff 0 800] ------- [0:255 -1:255 1 0] [0x8 1 [5 0] 0.000000] (ERROR)
s 0.430000000 _0_ AGT  --- 11 cbr 1000 [0 0 0 0] ------- [0:2 5:0 32 0] [11] 0 0
r 0.430000000 _0_ RTR  --- 11 cbr 1000 [0 0 0 0] ------- [0:2 5:0 32 0] [11] 0 0
s 0.430000000 _0_ RTR  --- 0 AODV 48 [0 0 0 0] ------- [0:255 -1:255 4 0] [0x2 1 3 [5 7] [0 12]] (REQUEST)
s 0.430195000 _0_ MAC  --- 0 AODV 106 [0 ffffffff 0 800] ------- [0:255 -1:255 4 0] [0x2 1 3 [5 7] [0 12]] (REQUEST)
r 0.431043691 _1_ MAC  --- 0 AODV 48 [0 ffffffff 0 800] ------- [0:255 -1:255 4 0] [0x2 1 3 [5 7] [0 12]] (REQUEST)
r 0.431068691 _1_ RTR  --- 0 AODV 48 [0 ffffffff 0 800] ------- [0:255 -1:255 4 0] [0x2 1 3 [5 7] [0 12]] (REQUEST)
s 0.431102194 _1_ RTR  --- 0 AODV 48 [0 ffffffff 0 800] ------- [1:255 -1:255 3 0] [0x2 2 3 [5 7] [0 12]] (REQUEST)
s 0.433119698 _1_ MAC  --- 0 AODV 106 [0 ffffffff 1 800] ------- [1:255 -1:255 3 0] [0x2 2 3 [5 7] [0 12]] (REQUEST)
r 0.433967870 _4_ MAC  --- 0 AODV 48 [0 ffffffff 1 800] ------- [1:255 -1:255 3 0] [0x2 2 3 [5 7] [0 12]] (REQUEST)
r 0.433968191 _3_ MAC  --- 0 AODV 48 [0 ffffffff 1 800] ------- [1:255 -1:255 3 0] [0x2 2 3 [5 7] [0 12]] (REQUEST)
r 0.433968358 _2_ MAC  --- 0 AODV 48 [0 ffffffff 1 800] ------- [1:255 -1:255 3 0] [0x2 2 3 [5 7] [0 12]] (REQUEST)
r 0.433968386 _0_ MAC  --- 0 AODV 48 [0 ffffffff 1 800] ------- [1:255 -1:255 3 0] [0x2 2 3 [5 7] [0 12]] (REQUEST)
r 0.433968386 _5_ MAC  --- 0 AODV 48 [0 ffffffff 1 800] ------- [1:255 -1:255 3 0] [0x2 2 3 [5 7] [0 12]] (REQUEST)
r 0.433992870 _4_ RTR  --- 0 AODV 48 [0 ffffffff 1 800] ------- [1:255 -1:255 3 0] [0x2 2 3 [5 7] [0 12]] (REQUEST)